 Gaussian 16, Revision A.03,
 Gaussian 16:  ES64L-G16RevA.03 25-Dec-2016

 ----------------------------------------------------------------------
 # Opt=(Z-matrix, MaxStep=10) B3LYP/Def2TZVP geom=allcheckpoint guess=r
 ead Field=read NoSymm freq=noraman pop=none
 ----------------------------------------------------------------------

 Structure from the checkpoint file:  "checkpoint.chk"
 ------------------
 int_zmat_initalOpt
 ------------------
 Charge =  0 Multiplicity = 1

 SCF Done:  E(RB3LYP) =  -439.160581086     A.U. after   11 cycles
 SCF Done:  E(RB3LYP) =  -439.160613585     A.U. after   10 cycles
 SCF Done:  E(RB3LYP) =  -439.160632518     A.U. after   10 cycles
 SCF Done:  E(RB3LYP) =  -439.160636729     A.U. after   10 cycles
 SCF Done:  E(RB3LYP) =  -439.160640882     A.U. after   10 cycles
 SCF Done:  E(RB3LYP) =  -439.160643910     A.U. after   10 cycles
 SCF Done:  E(RB3LYP) =  -439.160623717     A.U. after   12 cycles
 SCF Done:  E(RB3LYP) =  -439.160650405     A.U. after   10 cycles
 SCF Done:  E(RB3LYP) =  -439.160653407     A.U. after   11 cycles
 SCF Done:  E(RB3LYP) =  -439.160655686     A.U. after   10 cycles
 SCF Done:  E(RB3LYP) =  -439.160656980     A.U. after   10 cycles
 SCF Done:  E(RB3LYP) =  -439.160658274     A.U. after    8 cycles
 SCF Done:  E(RB3LYP) =  -439.160658872     A.U. after    9 cycles
 SCF Done:  E(RB3LYP) =  -439.160659270     A.U. after    7 cycles
 SCF Done:  E(RB3LYP) =  -439.160659365     A.U. after    9 cycles
 SCF Done:  E(RB3LYP) =  -439.160659523     A.U. after    9 cycles
 Optimization completed.
    -- Stationary point found.
 Normal termination of Gaussian 16 at Fri Jun 10 04:39:52 2022.

 --------------------------------------------------------------------
 #N Geom=AllCheck Guess=TCheck SCRF=Check GenChk RB3LYP/def2TZVP Freq
 --------------------------------------------------------------------

 Structure from the checkpoint file:  "checkpoint.chk"
 ------------------
 int_zmat_initalOpt
 ------------------
 Charge =  0 Multiplicity = 1

                          Input orientation:
 ---------------------------------------------------------------------
 Center     Atomic      Atomic             Coordinates (Angstroms)
 Number     Number       Type             X           Y           Z
 ---------------------------------------------------------------------
      1          6           0        0.000000    0.000000    0.000000
      2          6           0        0.000000    0.000000    1.456381
      3          6           0        0.973690    0.000000   -0.891368
      4          1           0       -0.958305    0.148744   -0.491026
      5          8           0        1.729151   -0.027556   -1.774048
      6          6           0        1.009011   -0.188678    2.330315
      7          1           0       -0.970490    0.233879    1.875663
      8          6           0        2.379276   -0.555663    2.077365
      9          1           0        0.759855   -0.031820    3.375621
     10          6           0        2.998284   -1.283553    1.066050
     11          7           0        3.372173   -0.236994    2.982588
     12          1           0        2.502596   -1.749684    0.231789
     13          6           0        4.373328   -1.380525    1.373353
     14          6           0        4.575837   -0.714106    2.561488
     15          1           0        3.241339    0.336132    3.799596
     16          1           0        5.134136   -1.882531    0.799711
     17          1           0        5.475922   -0.541348    3.126728
 ---------------------------------------------------------------------

 SCF Done:  E(RB3LYP) =  -439.160659523     A.U. after    1 cycles

 Isotropic polarizability for W=    0.000000      109.47 Bohr**3.
 End of Minotr F.D. properties file   721 does not exist.

                      1                      2                      3
                      A                      A                      A
 Frequencies --     43.6095                57.3421               124.4785
 Red. masses --      4.7813                 3.5483                 4.9852
 Frc consts  --      0.0054                 0.0069                 0.0455
 IR Inten    --      2.5744                 0.9719                 0.8741

                      4                      5                      6
                      A                      A                      A
 Frequencies --    167.5116               221.4057               314.9240
 Red. masses --      6.7463                 3.4636                 5.4311
 Frc consts  --      0.1115                 0.1000                 0.3174
 IR Inten    --      3.8218                 4.1167                 5.1935

                      7                      8                      9
                      A                      A                      A
 Frequencies --    457.4365               491.8187               536.4492
 Red. masses --      1.8552                 6.6250                 1.6644
 Frc consts  --      0.2287                 0.9442                 0.2822
 IR Inten    --     15.6739                11.9550                32.1181

                     10                     11                     12
                      A                      A                      A
 Frequencies --    540.2428               579.8375               627.6475
 Red. masses --      3.5878                 2.3737                 2.5374
 Frc consts  --      0.6170                 0.4702                 0.5889
 IR Inten    --     10.6949                47.9349                 2.0383

                     13                     14                     15
                      A                      A                      A
 Frequencies --    647.3785               677.8345               742.0185
 Red. masses --      4.6622                 2.7921                 1.5940
 Frc consts  --      1.1512                 0.7558                 0.5171
 IR Inten    --      8.3686                 7.6763                40.5773

                     16                     17                     18
                      A                      A                      A
 Frequencies --    747.2148               813.0449               846.2651
 Red. masses --      1.2238                 1.5414                 3.2345
 Frc consts  --      0.4026                 0.6003                 1.3648
 IR Inten    --     74.7515                 3.6240                27.7080

                     19                     20                     21
                      A                      A                      A
 Frequencies --    883.1996               897.0033               914.9349
 Red. masses --      1.3430                 5.4208                 4.4999
 Frc consts  --      0.6172                 2.5698                 2.2194
 IR Inten    --      1.1901                 0.9923                21.5672

                     22                     23                     24
                      A                      A                      A
 Frequencies --    941.8964               984.3296              1061.9101
 Red. masses --      1.2488                 2.6408                 1.3260
 Frc consts  --      0.6528                 1.5075                 0.8810
 IR Inten    --      2.0968                 3.0703                19.5563

                     25                     26                     27
                      A                      A                      A
 Frequencies --   1124.6592              1141.9895              1156.6706
 Red. masses --      1.8709                 1.4369                 1.5381
 Frc consts  --      1.3942                 1.1041                 1.2124
 IR Inten    --     17.6638                45.1493                 7.6902

                     28                     29                     30
                      A                      A                      A
 Frequencies --   1239.6238              1257.1477              1308.7836
 Red. masses --      1.6230                 1.8743                 1.4289
 Frc consts  --      1.4695                 1.7453                 1.4421
 IR Inten    --      5.8667                 1.6829                 1.2859

                     31                     32                     33
                      A                      A                      A
 Frequencies --   1419.4105              1434.9469              1444.8962
 Red. masses --      2.3035                 2.7073                 2.8887
 Frc consts  --      2.7343                 3.2844                 3.5532
 IR Inten    --      3.8774                 2.8367                11.5902

                     34                     35                     36
                      A                      A                      A
 Frequencies --   1471.3525              1484.4732              1593.9223
 Red. masses --      2.2331                 3.3993                 3.3187
 Frc consts  --      2.8484                 4.4136                 4.9677
 IR Inten    --      9.3774                83.5442                 1.2226

                     37                     38                     39
                      A                      A                      A
 Frequencies --   1662.1387              2170.0755              3130.7517
 Red. masses --      6.4933                12.6744                 1.0813
 Frc consts  --     10.5694                35.1665                 6.2442
 IR Inten    --     34.6027               688.5474                 6.0176

                     40                     41                     42
                      A                      A                      A
 Frequencies --   3137.0116              3173.6272              3243.4144
 Red. masses --      1.0855                 1.0902                 1.0896
 Frc consts  --      6.2935                 6.4697                 6.7534
 IR Inten    --      5.3977                13.6673                 6.9570

                     43                     44                     45
                      A                      A                      A
 Frequencies --   3255.8450              3270.1163              3635.5242
 Red. masses --      1.0954                 1.1041                 1.0808
 Frc consts  --      6.8418                 6.9566                 8.4164
 IR Inten    --      1.6185                 3.3848                90.0565

 - Thermochemistry -
 -------------------
 Temperature   298.150 Kelvin.  Pressure   1.00000 Atm.
 Atom     1 has atomic number  6 and mass  12.00000

 Molecular mass:   133.05276 amu.
 Principal axes and moments of inertia in atomic units:
                           1         2         3
     Eigenvalues --   768.422091817.134802470.76950
           X            0.74128  -0.62300   0.24974
           Y           -0.17552   0.17920   0.96803
           Z            0.64784   0.76142  -0.02349
 This molecule is an asymmetric top.
 Rotational symmetry number  1.
 Warning -- assumption of classical behavior for rotation
           may cause significant error
 Rotational temperatures (Kelvin)      0.11272     0.04767     0.03506
 Rotational constants (GHZ):           2.34863     0.99318     0.73044
 Zero-point vibrational energy     341391.0 (Joules/Mol)
                                   81.59440 (Kcal/Mol)
 Warning -- explicit consideration of  11 degrees of freedom as
           vibrations may cause significant error
 Vibrational temperatures:     62.74    82.50   179.10   241.01   318.55
          (Kelvin)            453.11   658.15   707.62   771.83   777.29
                              834.26   903.04   931.43   975.25  1067.60
                             1075.08  1169.79  1217.59  1270.73  1290.59
                             1316.39  1355.18  1416.23  1527.85  1618.13
                             1643.07  1664.19  1783.54  1808.76  1883.05
                             2042.22  2064.57  2078.88  2116.95  2135.83
                             2293.30  2391.45  3122.25  4504.45  4513.46
                             4566.14  4666.55  4684.43  4704.97  5230.71

 Zero-point correction=                           0.130029 (Hartree/Particle)
 Thermal correction to Energy=                    0.138967
 Thermal correction to Enthalpy=                  0.139911
 Thermal correction to Gibbs Free Energy=         0.094901
 Sum of electronic and zero-point Energies=           -439.030631
 Sum of electronic and thermal Energies=              -439.021693
 Sum of electronic and thermal Enthalpies=            -439.020749
 Sum of electronic and thermal Free Energies=         -439.065758

                     E (Thermal)             CV                S
                      KCal/Mol        Cal/Mol-Kelvin    Cal/Mol-Kelvin
 Total                   87.203             33.122             94.730
 Electronic               0.000              0.000              0.000
 Translational            0.889              2.981             40.569
 Rotational               0.889              2.981             29.624
 Vibrational             85.425             27.161             24.537
 Vibration     1          0.595              1.980              5.088
 Vibration     2          0.596              1.975              4.547
 Vibration     3          0.610              1.929              3.030
 Vibration     4          0.624              1.882              2.463
 Vibration     5          0.648              1.808              1.948
 Vibration     6          0.702              1.645              1.336
 Vibration     7          0.816              1.344              0.774
 Vibration     8          0.848              1.268              0.679
 Vibration     9          0.891              1.169              0.573
 Vibration    10          0.895              1.161              0.565
 Vibration    11          0.936              1.075              0.486

                       ! Non-Optimized Parameters !
 Normal termination of Gaussian 16 at Fri Jun 10 04:49:58 2022.
