 Gaussian 16, Revision A.03,
 Gaussian 16:  ES64L-G16RevA.03 25-Dec-2016

 ----------------------------------------------------------------------
 # Opt=(TS, CalcFC, noeigentest, Z-matrix, MaxStep=10) geom=allcheckpoi
 nt guess=read Field=read NoSymm B3LYP/Def2TZVP freq=noraman pop=none
 ----------------------------------------------------------------------

 Structure from the checkpoint file:  "checkpoint.chk"
 -----------------
 ts_zmat_initalOpt
 -----------------
 Charge =  0 Multiplicity = 1

 SCF Done:  E(RB3LYP) =  -312.083464545     A.U. after   10 cycles
 SCF Done:  E(RB3LYP) =  -312.083481995     A.U. after    9 cycles
 SCF Done:  E(RB3LYP) =  -312.083482043     A.U. after    7 cycles
 Optimization completed.
    -- Stationary point found.
 Normal termination of Gaussian 16 at Fri Jun 10 03:50:38 2022.

 --------------------------------------------------------------------
 #N Geom=AllCheck Guess=TCheck SCRF=Check GenChk RB3LYP/def2TZVP Freq
 --------------------------------------------------------------------

 Structure from the checkpoint file:  "checkpoint.chk"
 -----------------
 ts_zmat_initalOpt
 -----------------
 Charge =  0 Multiplicity = 1

                          Input orientation:
 ---------------------------------------------------------------------
 Center     Atomic      Atomic             Coordinates (Angstroms)
 Number     Number       Type             X           Y           Z
 ---------------------------------------------------------------------
      1          6           0        0.000000    0.000000    0.000000
      2          6           0        0.000000    0.000000    1.539412
      3          6           0        1.487259    0.000000   -0.331987
      4          1           0       -0.495109   -0.878740   -0.418700
      5          1           0       -0.502984    0.874703   -0.417723
      6          6           0        1.486653    0.063945    1.864212
      7          6           0        2.193129    1.130308   -0.732306
      8          1           0       -0.441196   -0.904824    1.957519
      9          1           0       -0.546797    0.841335    1.967304
     10          1           0        1.937833   -0.965233   -0.533443
     11          6           0        1.777256    2.431919   -0.541177
     12          6           0        2.169378    1.233175    2.181430
     13          1           0        1.958848   -0.870130    2.144329
     14          1           0        3.242590    0.977319   -0.974688
     15          6           0        1.714459    2.502424    1.910366
     16          1           0        3.208813    1.123687    2.476103
     17          1           0        0.730463    2.681669   -0.453702
     18          1           0        2.435874    3.254560   -0.788442
     19          1           0        0.660023    2.703936    1.791293
     20          1           0        2.330766    3.360551    2.141829
 ---------------------------------------------------------------------

 SCF Done:  E(RB3LYP) =  -312.083482043     A.U. after    1 cycles

 Isotropic polarizability for W=    0.000000      102.79 Bohr**3.
 End of Minotr F.D. properties file   721 does not exist.

 ******    1 imaginary frequencies (negative Signs) ******

                      1                      2                      3
                      A                      A                      A
 Frequencies --   -415.6849                58.6784               255.5636
 Red. masses --      8.0477                 2.0970                 4.4437
 Frc consts  --      0.8193                 0.0043                 0.1710
 IR Inten    --      2.3947                 0.0418                 1.5002

                      4                      5                      6
                      A                      A                      A
 Frequencies --    259.3809               283.2319               300.1967
 Red. masses --      2.6022                 2.9561                 3.2996
 Frc consts  --      0.1032                 0.1397                 0.1752
 IR Inten    --      1.4701                 0.7195                 0.8248

                      7                      8                      9
                      A                      A                      A
 Frequencies --    368.1387               420.0077               530.3324
 Red. masses --      2.3202                 2.2689                 2.2829
 Frc consts  --      0.1853                 0.2358                 0.3783
 IR Inten    --      1.6803                 2.1150                 2.7344

                     10                     11                     12
                      A                      A                      A
 Frequencies --    573.6631               655.9365               682.8708
 Red. masses --      2.0359                 2.6241                 1.3331
 Frc consts  --      0.3947                 0.6652                 0.3663
 IR Inten    --      0.4133                 3.6332                 0.3649

                     13                     14                     15
                      A                      A                      A
 Frequencies --    715.0483               760.5133               785.1094
 Red. masses --      1.3096                 1.0982                 1.3316
 Frc consts  --      0.3945                 0.3743                 0.4836
 IR Inten    --     23.0218                 6.7981                 5.1010

                     16                     17                     18
                      A                      A                      A
 Frequencies --    860.8976               885.8106               909.6729
 Red. masses --      1.4531                 1.1899                 2.4584
 Frc consts  --      0.6345                 0.5501                 1.1986
 IR Inten    --     15.2181                 3.7205                 0.2402

                     19                     20                     21
                      A                      A                      A
 Frequencies --    941.5105               952.0324               992.9371
 Red. masses --      1.4709                 1.5184                 1.5053
 Frc consts  --      0.7682                 0.8108                 0.8744
 IR Inten    --      0.6536                 9.5468                 4.9480

                     22                     23                     24
                      A                      A                      A
 Frequencies --    995.3978              1008.4734              1024.3704
 Red. masses --      1.5977                 1.5757                 1.3349
 Frc consts  --      0.9327                 0.9442                 0.8253
 IR Inten    --      1.4504                 3.4456                15.4566

                     25                     26                     27
                      A                      A                      A
 Frequencies --   1041.8963              1088.2063              1148.2426
 Red. masses --      1.4258                 1.9326                 1.3057
 Frc consts  --      0.9119                 1.3484                 1.0143
 IR Inten    --      1.9233                 5.8957                 0.5393

                     28                     29                     30
                      A                      A                      A
 Frequencies --   1183.3629              1221.3398              1263.9124
 Red. masses --      1.5963                 1.5218                 1.1370
 Frc consts  --      1.3171                 1.3374                 1.0701
 IR Inten    --      0.5266                 0.5106                 0.0868

                     31                     32                     33
                      A                      A                      A
 Frequencies --   1286.8569              1296.1310              1301.2988
 Red. masses --      1.4605                 1.4280                 1.3411
 Frc consts  --      1.4250                 1.4135                 1.3380
 IR Inten    --      0.8621                 0.9410                 1.2752

                     34                     35                     36
                      A                      A                      A
 Frequencies --   1327.7267              1426.9116              1433.3333
 Red. masses --      1.4038                 1.3315                 1.3145
 Frc consts  --      1.4581                 1.5973                 1.5911
 IR Inten    --      3.2949                 1.3170                 2.5100

                     37                     38                     39
                      A                      A                      A
 Frequencies --   1487.8664              1497.4352              1505.7906
 Red. masses --      1.1771                 2.2122                 1.5128
 Frc consts  --      1.5353                 2.9226                 2.0209
 IR Inten    --      2.6452                 3.9688                 0.3611

                     40                     41                     42
                      A                      A                      A
 Frequencies --   1510.3577              1558.5928              1610.3254
 Red. masses --      1.1547                 1.9261                 3.7571
 Frc consts  --      1.5519                 2.7567                 5.7403
 IR Inten    --     15.8743                 2.9253                 8.9171

                     43                     44                     45
                      A                      A                      A
 Frequencies --   3034.7149              3058.1829              3065.3625
 Red. masses --      1.0585                 1.0621                 1.1037
 Frc consts  --      5.7433                 5.8525                 6.1102
 IR Inten    --     51.6290                32.3505                 9.4839

                     46                     47                     48
                      A                      A                      A
 Frequencies --   3099.2289              3106.2655              3135.8713
 Red. masses --      1.1052                 1.0847                 1.0855
 Frc consts  --      6.2545                 6.1663                 6.2890
 IR Inten    --     15.8643                23.2711                10.2124

                     49                     50                     51
                      A                      A                      A
 Frequencies --   3150.0944              3157.3536              3160.0581
 Red. masses --      1.0617                 1.0863                 1.0596
 Frc consts  --      6.2072                 6.3803                 6.2340
 IR Inten    --     13.1122                19.7475                10.4382

                     52                     53                     54
                      A                      A                      A
 Frequencies --   3171.2416              3229.7002              3243.0309
 Red. masses --      1.0905                 1.1153                 1.1141
 Frc consts  --      6.4612                 6.8545                 6.9039
 IR Inten    --     10.8172                 5.2149                17.8783

 - Thermochemistry -
 -------------------
 Temperature   298.150 Kelvin.  Pressure   1.00000 Atm.
 Atom     1 has atomic number  6 and mass  12.00000

 Molecular mass:   108.09390 amu.
 Principal axes and moments of inertia in atomic units:
                           1         2         3
     Eigenvalues --   726.51713 782.369251143.57585
           X            0.56813   0.05352   0.82120
           Y            0.81209   0.12503  -0.56998
           Z           -0.13318   0.99071   0.02757
 This molecule is an asymmetric top.
 Rotational symmetry number  1.
 Warning -- assumption of classical behavior for rotation
           may cause significant error
 Rotational temperatures (Kelvin)      0.11922     0.11071     0.07574
 Rotational constants (GHZ):           2.48410     2.30676     1.57816
    1 imaginary frequencies ignored.
 Zero-point vibrational energy     460684.7 (Joules/Mol)
                                  110.10628 (Kcal/Mol)
 Warning -- explicit consideration of   9 degrees of freedom as
           vibrations may cause significant error
 Vibrational temperatures:     84.43   367.70   373.19   407.51   431.92
          (Kelvin)            529.67   604.30   763.03   825.37   943.75
                              982.50  1028.79  1094.21  1129.60  1238.64
                             1274.48  1308.82  1354.62  1369.76  1428.62
                             1432.16  1450.97  1473.84  1499.06  1565.69
                             1652.06  1702.60  1757.24  1818.49  1851.50
                             1864.84  1872.28  1910.30  2053.01  2062.25
                             2140.71  2154.48  2166.50  2173.07  2242.47
                             2316.90  4366.28  4400.04  4410.37  4459.10
                             4469.22  4511.82  4532.28  4542.73  4546.62
                             4562.71  4646.82  4666.00

 Zero-point correction=                           0.175466 (Hartree/Particle)
 Thermal correction to Energy=                    0.183085
 Thermal correction to Enthalpy=                  0.184029
 Thermal correction to Gibbs Free Energy=         0.143755
 Sum of electronic and zero-point Energies=           -311.908017
 Sum of electronic and thermal Energies=              -311.900397
 Sum of electronic and thermal Enthalpies=            -311.899453
 Sum of electronic and thermal Free Energies=         -311.939727

                     E (Thermal)             CV                S
                      KCal/Mol        Cal/Mol-Kelvin    Cal/Mol-Kelvin
 Total                  114.887             30.579             84.764
 Electronic               0.000              0.000              0.000
 Translational            0.889              2.981             39.950
 Rotational               0.889              2.981             27.966
 Vibrational            113.110             24.617             16.849
 Vibration     1          0.596              1.974              4.501
 Vibration     2          0.666              1.753              1.692
 Vibration     3          0.668              1.747              1.666
 Vibration     4          0.682              1.705              1.514
 Vibration     5          0.693              1.673              1.416
 Vibration     6          0.741              1.538              1.088
 Vibration     7          0.783              1.427              0.892
 Vibration     8          0.885              1.183              0.586
 Vibration     9          0.930              1.088              0.497

 Optimization completed.
    -- Stationary point found.
 Normal termination of Gaussian 16 at Fri Jun 10 04:00:01 2022.
