 Gaussian 16, Revision A.03,
 Gaussian 16:  ES64L-G16RevA.03 25-Dec-2016

 --------------------------
 # sp B3LYP/Def2TZVP NoSymm
 --------------------------

 ---------------------------------
 ts_initalOptXYZ_aligned_AlignedSp
 ---------------------------------
 Symbolic Z-matrix:
 Charge =  0 Multiplicity = 1

                          Input orientation:
 ---------------------------------------------------------------------
 Center     Atomic      Atomic             Coordinates (Angstroms)
 Number     Number       Type             X           Y           Z
 ---------------------------------------------------------------------
      1          6           0       -0.748087   -0.158333    0.411813
      2          6           0       -1.149335    1.142160    0.117048
      3         16           0        0.869444   -0.503237    1.074548
      4          6           0        2.689401    1.086251   -0.690343
      5          6           0        2.997476   -0.246516   -0.918450
      6          1           0        3.429557    1.772892   -0.305763
      7          1           0        1.827154    1.533929   -1.163239
      8          6           0        1.987544   -1.133040   -1.203070
      9          1           0        3.947622   -0.627732   -0.560242
     10          1           0        2.157685   -2.201635   -1.200762
     11          1           0        1.067026   -0.797719   -1.661759
     12          8           0        1.631575    0.830044    1.062620
     13          1           0       -0.462268    1.959518    0.290577
     14          6           0       -2.429227    1.369803   -0.375884
     15          1           0       -2.741391    2.381362   -0.604395
     16          6           0       -3.309943    0.310577   -0.566618
     17          1           0       -4.306592    0.493637   -0.947055
     18          6           0       -2.906278   -0.987002   -0.262461
     19          1           0       -3.588127   -1.815681   -0.407033
     20          6           0       -1.628232   -1.225563    0.223184
     21          1           0       -1.314283   -2.237162    0.454635
 ---------------------------------------------------------------------

 SCF Done:  E(RB3LYP) =  -822.501782282     A.U. after   18 cycles

 Alpha  occ. eigenvalues --  -88.91714 -19.13077 -10.20608 -10.20336 -10.19373
 Alpha  occ. eigenvalues --  -10.18931 -10.18677 -10.18571 -10.18400 -10.18313
 Alpha  occ. eigenvalues --  -10.17367  -7.98576  -5.94912  -5.94450  -5.94265
 Alpha  occ. eigenvalues --   -1.01607  -0.87174  -0.80661  -0.77637  -0.76002
 Alpha  occ. eigenvalues --   -0.69511  -0.66402  -0.61950  -0.58852  -0.56981
 Alpha  occ. eigenvalues --   -0.52541  -0.49392  -0.46975  -0.46504  -0.44885
 Alpha  occ. eigenvalues --   -0.43761  -0.43528  -0.42095  -0.39894  -0.39202
 Alpha  occ. eigenvalues --   -0.37835  -0.37245  -0.36563  -0.35712  -0.28604
 Alpha  occ. eigenvalues --   -0.28181  -0.26995  -0.26651  -0.21738
 Alpha virt. eigenvalues --   -0.06989  -0.02517  -0.01315   0.02087   0.02602
 Alpha virt. eigenvalues --    0.04370   0.05341   0.06742   0.07098   0.08031
 Alpha virt. eigenvalues --    0.09357   0.09834   0.11107   0.11790   0.12280

 Mulliken charges:
               1
     1  C    0.043878
     2  C   -0.167013
     3  S    0.317415
     4  C   -0.146507
     5  C   -0.060537
     6  H    0.128206
     7  H    0.128950
     8  C   -0.301423
     9  H    0.102174
    10  H    0.128106
    11  H    0.148274
    12  O   -0.441630
    13  H    0.146837
    14  C   -0.098979
    15  H    0.113396
    16  C   -0.108449
    17  H    0.112742
    18  C   -0.108361
    19  H    0.113054
    20  C   -0.155934
    21  H    0.105801
 Sum of Mulliken charges =  -0.00000

 Dipole moment (field-independent basis, Debye):
    X=             -0.9621    Y=             -0.7469    Z=             -1.6144  Tot=              2.0223
 Quadrupole moment (field-independent basis, Debye-Ang):
   XX=            -66.6590   YY=            -66.6750   ZZ=            -78.4767
   XY=             -0.5807   XZ=              0.5455   YZ=             -1.9813

 1\1\GINC-BHC0030\SP\RB3LYP\def2TZVP\C9H10O1S1\DHANAWAY\10-Jun-2022\0\\
 # sp B3LYP/Def2TZVP NoSymm\\ts_initalOptXYZ_aligned_AlignedSp\\0,1\C,0
 ,-0.748087,-0.158333,0.411813\C,0,-1.149335,1.14216,0.117048\S,0,0.869
 444,-0.503237,1.074548\C,0,2.689401,1.086251,-0.690343\C,0,2.997476,-0
 .246516,-0.91845\H,0,3.429557,1.772892,-0.305763\H,0,1.827154,1.533929
 ,-1.163239\C,0,1.987544,-1.13304,-1.20307\H,0,3.947622,-0.627732,-0.56
 0242\H,0,2.157685,-2.201635,-1.200762\H,0,1.067026,-0.797719,-1.661759
 \O,0,1.631575,0.830044,1.06262\H,0,-0.462268,1.959518,0.290577\C,0,-2.

 Normal termination of Gaussian 16 at Fri Jun 10 11:14:08 2022.
