 Gaussian 16, Revision A.03,
 Gaussian 16:  ES64L-G16RevA.03 25-Dec-2016

 ----------------------------------------------------------------------
 # Opt=(TS, CalcFC, noeigentest, Z-matrix, MaxStep=10) geom=allcheckpoi
 nt guess=read Field=read NoSymm B3LYP/Def2TZVP freq=noraman pop=none
 ----------------------------------------------------------------------

 Structure from the checkpoint file:  "checkpoint.chk"
 -----------------
 ts_zmat_initalOpt
 -----------------
 Charge =  0 Multiplicity = 1

 SCF Done:  E(RB3LYP) =  -669.445220948     A.U. after   12 cycles
 SCF Done:  E(RB3LYP) =  -669.445345651     A.U. after   13 cycles
 SCF Done:  E(RB3LYP) =  -669.445346109     A.U. after    8 cycles
 Optimization completed.
    -- Stationary point found.
 Normal termination of Gaussian 16 at Fri Jun 10 06:17:25 2022.

 --------------------------------------------------------------------
 #N Geom=AllCheck Guess=TCheck SCRF=Check GenChk RB3LYP/def2TZVP Freq
 --------------------------------------------------------------------

 Structure from the checkpoint file:  "checkpoint.chk"
 -----------------
 ts_zmat_initalOpt
 -----------------
 Charge =  0 Multiplicity = 1

                          Input orientation:
 ---------------------------------------------------------------------
 Center     Atomic      Atomic             Coordinates (Angstroms)
 Number     Number       Type             X           Y           Z
 ---------------------------------------------------------------------
      1          6           0        0.000000    0.000000    0.000000
      2          6           0        0.000000    0.000000    1.398450
      3          6           0        1.220522    0.000000   -0.617183
      4          1           0       -0.902616   -0.213452   -0.556175
      5          6           0        2.423586    0.026767    0.248396
      6          1           0       -0.897534   -0.306491    1.923956
      7          6           0        0.989538    0.829529    2.159416
      8          1           0        1.307673   -0.081990   -1.691891
      9          6           0        2.607730   -1.375986    0.968830
     10          1           0        3.325549    0.212209   -0.332858
     11          6           0        2.243315    1.119893    1.318291
     12          1           0        1.243605    0.358015    3.109955
     13          1           0        0.477821    1.762277    2.425131
     14          6           0        1.361240   -1.985085    1.518361
     15          1           0        3.336078   -1.239575    1.765768
     16          1           0        3.004146   -2.062925    0.220167
     17          1           0        3.126734    1.156160    1.956000
     18          1           0        2.159597    2.091061    0.829048
     19          7           0        0.542733   -2.698038    0.688706
     20          6           0        1.235213   -2.234152    2.964317
     21          8           0        0.834771   -2.581924   -0.523123
     22          8           0        2.031660   -1.840192    3.790715
     23          8           0        0.126642   -2.932679    3.311203
     24          6           0       -0.012420   -3.189378    4.710577
     25          1           0       -0.938674   -3.751430    4.811561
     26          1           0        0.829604   -3.771825    5.086508
     27          1           0       -0.069592   -2.259502    5.277022
 ---------------------------------------------------------------------

 SCF Done:  E(RB3LYP) =  -669.445346109     A.U. after    1 cycles

 Isotropic polarizability for W=    0.000000      138.42 Bohr**3.
 End of Minotr F.D. properties file   721 does not exist.

 ******    1 imaginary frequencies (negative Signs) ******

                      1                      2                      3
                      A                      A                      A
 Frequencies --   -232.3704                53.5277                81.4825
 Red. masses --      5.6971                 5.1940                 3.5110
 Frc consts  --      0.1812                 0.0088                 0.0137
 IR Inten    --     25.1076                 2.7291                 2.2060

                      4                      5                      6
                      A                      A                      A
 Frequencies --     95.3431               145.5088               170.3597
 Red. masses --      3.2445                 1.2960                 3.6622
 Frc consts  --      0.0174                 0.0162                 0.0626
 IR Inten    --      0.6027                 0.0820                 1.1360

                      7                      8                      9
                      A                      A                      A
 Frequencies --    184.0384               200.8929               254.0930
 Red. masses --      5.4932                 6.2109                 2.0801
 Frc consts  --      0.1096                 0.1477                 0.0791
 IR Inten    --     13.6676                15.8823                 3.2161

                     10                     11                     12
                      A                      A                      A
 Frequencies --    279.0619               329.6009               342.9538
 Red. masses --      3.8514                 5.6900                 4.4508
 Frc consts  --      0.1767                 0.3642                 0.3084
 IR Inten    --      3.1264                19.4041                11.0123

                     13                     14                     15
                      A                      A                      A
 Frequencies --    383.8774               400.0250               442.9977
 Red. masses --      2.7375                 2.5190                 4.9331
 Frc consts  --      0.2377                 0.2375                 0.5704
 IR Inten    --      0.9787                 0.8564                 8.5396

                     16                     17                     18
                      A                      A                      A
 Frequencies --    490.0739               501.4558               554.5683
 Red. masses --      3.3335                10.4569                 3.8991
 Frc consts  --      0.4717                 1.5492                 0.7065
 IR Inten    --      2.4817                 1.0836                 2.0229

                     19                     20                     21
                      A                      A                      A
 Frequencies --    567.7813               652.1197               738.5220
 Red. masses --      5.7889                 4.1397                 3.7525
 Frc consts  --      1.0995                 1.0372                 1.2059
 IR Inten    --      4.4311                 1.4404                 1.9472

                     22                     23                     24
                      A                      A                      A
 Frequencies --    758.2859               778.9860               788.9535
 Red. masses --      1.5431                 3.5221                 2.6896
 Frc consts  --      0.5228                 1.2592                 0.9864
 IR Inten    --     11.9345                 5.8744                16.7793

                     25                     26                     27
                      A                      A                      A
 Frequencies --    802.8197               837.6289               855.3427
 Red. masses --      1.9753                 3.1290                 3.0403
 Frc consts  --      0.7501                 1.2935                 1.3105
 IR Inten    --      0.7946                 3.1311                 0.5442

                     28                     29                     30
                      A                      A                      A
 Frequencies --    904.8680               920.8317               959.6221
 Red. masses --      2.4605                 1.9161                 2.4422
 Frc consts  --      1.1870                 0.9572                 1.3250
 IR Inten    --     27.8237                 7.2719                11.4208

                     31                     32                     33
                      A                      A                      A
 Frequencies --    976.9172               985.2787              1003.8426
 Red. masses --      1.8735                 2.4562                 2.3851
 Frc consts  --      1.0535                 1.4049                 1.4161
 IR Inten    --      3.6018                11.1666                 6.6260

                     34                     35                     36
                      A                      A                      A
 Frequencies --   1020.7323              1056.4605              1068.2962
 Red. masses --      2.6058                 2.1258                 2.1437
 Frc consts  --      1.5996                 1.3979                 1.4414
 IR Inten    --     16.8732                27.0375                 2.6938

                     37                     38                     39
                      A                      A                      A
 Frequencies --   1129.1752              1138.9424              1171.7593
 Red. masses --      2.5471                 1.6600                 1.0564
 Frc consts  --      1.9134                 1.2687                 0.8546
 IR Inten    --    134.8143                60.2140                 9.7898

                     40                     41                     42
                      A                      A                      A
 Frequencies --   1172.6156              1191.4944              1198.6105
 Red. masses --      1.2719                 1.1643                 1.6984
 Frc consts  --      1.0304                 0.9739                 1.4377
 IR Inten    --      0.3951                20.1450               256.8075

                     43                     44                     45
                      A                      A                      A
 Frequencies --   1209.9358              1227.1443              1246.0226
 Red. masses --      1.4555                 1.4260                 1.2653
 Frc consts  --      1.2554                 1.2652                 1.1574
 IR Inten    --     15.5773                 6.4409                22.0651

                     46                     47                     48
                      A                      A                      A
 Frequencies --   1303.3766              1323.0310              1334.3169
 Red. masses --      2.7828                 1.5355                 1.9193
 Frc consts  --      2.7853                 1.5836                 2.0133
 IR Inten    --    115.4767                41.2017               137.1355

                     49                     50                     51
                      A                      A                      A
 Frequencies --   1362.6206              1375.8480              1388.9912
 Red. masses --      1.3243                 1.7326                 1.7191
 Frc consts  --      1.4487                 1.9324                 1.9542
 IR Inten    --      8.4761                10.0489                46.9187

                     52                     53                     54
                      A                      A                      A
 Frequencies --   1401.5181              1423.2543              1463.9983
 Red. masses --      4.7786                 1.7215                 1.3040
 Frc consts  --      5.5303                 2.0546                 1.6466
 IR Inten    --     81.3556                 2.1170                43.8481

                     55                     56                     57
                      A                      A                      A
 Frequencies --   1466.2357              1473.1077              1482.4305
 Red. masses --      1.1675                 1.2462                 1.0464
 Frc consts  --      1.4788                 1.5933                 1.3549
 IR Inten    --     10.2799                29.0304                 5.9930

                     58                     59                     60
                      A                      A                      A
 Frequencies --   1500.1355              1504.1828              1508.9341
 Red. masses --      1.0549                 1.1157                 1.8348
 Frc consts  --      1.3987                 1.4873                 2.4613
 IR Inten    --      8.6922                10.4051                 6.5618

                     61                     62                     63
                      A                      A                      A
 Frequencies --   1564.4658              1730.6659              3010.4097
 Red. masses --      3.7557                11.3508                 1.0733
 Frc consts  --      5.4159                20.0311                 5.7311
 IR Inten    --     40.3261               234.9515                 4.5649

                     64                     65                     66
                      A                      A                      A
 Frequencies --   3041.3730              3058.9533              3060.6945
 Red. masses --      1.0293                 1.0619                 1.0607
 Frc consts  --      5.6094                 5.8544                 5.8542
 IR Inten    --     55.7682                10.7671                13.6619

                     67                     68                     69
                      A                      A                      A
 Frequencies --   3071.8069              3094.6980              3101.0096
 Red. masses --      1.0878                 1.0863                 1.1043
 Frc consts  --      6.0477                 6.1297                 6.2567
 IR Inten    --      1.3073                19.1066                 6.9460

                     70                     71                     72
                      A                      A                      A
 Frequencies --   3106.2750              3126.0432              3132.4978
 Red. masses --      1.1059                 1.1024                 1.1057
 Frc consts  --      6.2869                 6.3472                 6.3924
 IR Inten    --     21.8664                 0.7587                26.8490

                     73                     74                     75
                      A                      A                      A
 Frequencies --   3166.6214              3190.6699              3209.7556
 Red. masses --      1.0883                 1.0898                 1.0965
 Frc consts  --      6.4298                 6.5369                 6.6560
 IR Inten    --      7.0935                 3.5120                 2.5815

 - Thermochemistry -
 -------------------
 Temperature   298.150 Kelvin.  Pressure   1.00000 Atm.
 Atom     1 has atomic number  6 and mass  12.00000

 Molecular mass:   195.08954 amu.
 Principal axes and moments of inertia in atomic units:
                           1         2         3
     Eigenvalues --  1552.474812986.254163471.27073
           X           -0.17678   0.27929   0.94379
           Y           -0.60142   0.72840  -0.32820
           Z            0.77913   0.62564  -0.03920
 This molecule is an asymmetric top.
 Rotational symmetry number  1.
 Warning -- assumption of classical behavior for rotation
           may cause significant error
 Rotational temperatures (Kelvin)      0.05579     0.02900     0.02495
 Rotational constants (GHZ):           1.16249     0.60435     0.51991
    1 imaginary frequencies ignored.
 Zero-point vibrational energy     575707.5 (Joules/Mol)
                                  137.59738 (Kcal/Mol)
 Warning -- explicit consideration of  18 degrees of freedom as
           vibrations may cause significant error
 Vibrational temperatures:     77.01   117.24   137.18   209.35   245.11
          (Kelvin)            264.79   289.04   365.58   401.51   474.22
                              493.43   552.31   575.55   637.37   705.11
                              721.48   797.90   816.91   938.25  1062.57
                             1091.00  1120.79  1135.13  1155.08  1205.16
                             1230.65  1301.90  1324.87  1380.68  1405.57
                             1417.60  1444.31  1468.61  1520.01  1537.04
                             1624.63  1638.68  1685.90  1687.13  1714.29
                             1724.53  1740.83  1765.59  1792.75  1875.27
                             1903.55  1919.78  1960.51  1979.54  1998.45
                             2016.47  2047.75  2106.37  2109.59  2119.47
                             2132.89  2158.36  2164.18  2171.02  2250.92
                             2490.04  4331.31  4375.86  4401.15  4403.66
                             4419.65  4452.58  4461.66  4469.24  4497.68
                             4506.97  4556.06  4590.66  4618.12

 Zero-point correction=                           0.219275 (Hartree/Particle)
 Thermal correction to Energy=                    0.231585
 Thermal correction to Enthalpy=                  0.232530
 Thermal correction to Gibbs Free Energy=         0.180814
 Sum of electronic and zero-point Energies=           -669.226071
 Sum of electronic and thermal Energies=              -669.213761
 Sum of electronic and thermal Enthalpies=            -669.212817
 Sum of electronic and thermal Free Energies=         -669.264532

                     E (Thermal)             CV                S
                      KCal/Mol        Cal/Mol-Kelvin    Cal/Mol-Kelvin
 Total                  145.322             47.755            108.845
 Electronic               0.000              0.000              0.000
 Translational            0.889              2.981             41.710
 Rotational               0.889              2.981             31.154
 Vibrational            143.545             41.793             35.981
 Vibration     1          0.596              1.976              4.683
 Vibration     2          0.600              1.962              3.855
 Vibration     3          0.603              1.953              3.547
 Vibration     4          0.617              1.908              2.730
 Vibration     5          0.625              1.879              2.432
 Vibration     6          0.631              1.862              2.287
 Vibration     7          0.638              1.839              2.125
 Vibration     8          0.665              1.756              1.702
 Vibration     9          0.679              1.712              1.539
 Vibration    10          0.712              1.616              1.262
 Vibration    11          0.722              1.590              1.198
 Vibration    12          0.753              1.505              1.024
 Vibration    13          0.766              1.470              0.963
 Vibration    14          0.803              1.376              0.817
 Vibration    15          0.846              1.272              0.683
 Vibration    16          0.857              1.247              0.654
 Vibration    17          0.910              1.130              0.535
 Vibration    18          0.924              1.101              0.509

 Optimization completed.
    -- Stationary point found.
 Normal termination of Gaussian 16 at Fri Jun 10 07:00:25 2022.
