 Gaussian 16, Revision A.03,
 Gaussian 16:  ES64L-G16RevA.03 25-Dec-2016

 ----------------------------------------------------------------------
 # Opt=(TS, CalcFC, noeigentest, Z-matrix, MaxStep=10) geom=allcheckpoi
 nt guess=read Field=read NoSymm B3LYP/Def2TZVP freq=noraman pop=none
 ----------------------------------------------------------------------

 Structure from the checkpoint file:  "checkpoint.chk"
 -----------------
 ts_zmat_initalOpt
 -----------------
 Charge =  0 Multiplicity = 1

 SCF Done:  E(RB3LYP) =  -195.280042606     A.U. after   10 cycles
 SCF Done:  E(RB3LYP) =  -195.280048662     A.U. after    9 cycles
 Optimization completed.
    -- Stationary point found.
 Normal termination of Gaussian 16 at Fri Jun 10 02:58:01 2022.

 --------------------------------------------------------------------
 #N Geom=AllCheck Guess=TCheck SCRF=Check GenChk RB3LYP/def2TZVP Freq
 --------------------------------------------------------------------

 Structure from the checkpoint file:  "checkpoint.chk"
 -----------------
 ts_zmat_initalOpt
 -----------------
 Charge =  0 Multiplicity = 1

                          Input orientation:
 ---------------------------------------------------------------------
 Center     Atomic      Atomic             Coordinates (Angstroms)
 Number     Number       Type             X           Y           Z
 ---------------------------------------------------------------------
      1          6           0        0.000000    0.000000    0.000000
      2          6           0        0.000000    0.000000    1.506702
      3          6           0        1.416281    0.000000   -0.339675
      4          1           0       -0.558781    0.842957   -0.412540
      5          1           0       -0.496414   -0.918150   -0.332516
      6          1           0        1.901539    0.831886   -0.826953
      7          1           0        2.014218   -0.865442   -0.092597
      8          6           0        0.744898    0.884686    2.272064
      9          1           0       -0.647774   -0.713918    2.006378
     10          6           0        1.949110    1.468611    1.964057
     11          1           0        0.277508    1.164778    3.219407
     12          1           0        2.694718    0.937956    1.396602
     13          1           0        2.251883    2.400360    2.432109
 ---------------------------------------------------------------------

 SCF Done:  E(RB3LYP) =  -195.280048662     A.U. after    1 cycles

 Isotropic polarizability for W=    0.000000       74.82 Bohr**3.
 End of Minotr F.D. properties file   721 does not exist.

 ******    1 imaginary frequencies (negative Signs) ******

                      1                      2                      3
                      A                      A                      A
 Frequencies --   -418.3300               219.5943               261.6536
 Red. masses --      1.9517                 2.2382                 2.2686
 Frc consts  --      0.2012                 0.0636                 0.0915
 IR Inten    --      0.2618                 0.4839                 1.1246

                      4                      5                      6
                      A                      A                      A
 Frequencies --    370.6340               542.2318               584.4058
 Red. masses --      2.2248                 1.2675                 1.3142
 Frc consts  --      0.1801                 0.2196                 0.2644
 IR Inten    --      7.1613                 7.9108                 3.5962

                      7                      8                      9
                      A                      A                      A
 Frequencies --    645.6900               693.5136               744.4883
 Red. masses --      1.4542                 1.3870                 1.2606
 Frc consts  --      0.3572                 0.3930                 0.4117
 IR Inten    --     20.6797                45.8573                51.5602

                     10                     11                     12
                      A                      A                      A
 Frequencies --    770.4796               835.5998               896.8102
 Red. masses --      1.3812                 1.5540                 1.4871
 Frc consts  --      0.4831                 0.6393                 0.7047
 IR Inten    --      6.1535                10.4219                 4.9784

                     13                     14                     15
                      A                      A                      A
 Frequencies --    932.4801              1031.2755              1062.3625
 Red. masses --      1.8221                 1.5583                 1.6786
 Frc consts  --      0.9335                 0.9765                 1.1162
 IR Inten    --      3.8825                 0.3963                16.7720

                     16                     17                     18
                      A                      A                      A
 Frequencies --   1130.6407              1154.0309              1221.6610
 Red. masses --      2.1790                 1.9890                 1.2274
 Frc consts  --      1.6411                 1.5607                 1.0793
 IR Inten    --     20.1286                 0.3733                 6.6190

                     19                     20                     21
                      A                      A                      A
 Frequencies --   1266.5535              1305.7079              1399.4576
 Red. masses --      1.2557                 1.3045                 1.3441
 Frc consts  --      1.1869                 1.3103                 1.5509
 IR Inten    --     20.0097                 6.2390                 2.1408

                     22                     23                     24
                      A                      A                      A
 Frequencies --   1421.6654              1480.1479              1496.3554
 Red. masses --      1.1108                 1.2658                 1.4494
 Frc consts  --      1.3228                 1.6339                 1.9121
 IR Inten    --     13.3546                 7.3330                 2.0947

                     25                     26                     27
                      A                      A                      A
 Frequencies --   1588.4252              3017.9066              3062.1323
 Red. masses --      4.0766                 1.0588                 1.0855
 Frc consts  --      6.0601                 5.6819                 5.9967
 IR Inten    --     23.3742                 7.5666                13.3542

                     28                     29                     30
                      A                      A                      A
 Frequencies --   3064.8819              3124.3421              3149.6304
 Red. masses --      1.0985                 1.0656                 1.0885
 Frc consts  --      6.0797                 6.1286                 6.3620
 IR Inten    --     11.9323                27.4965                 3.8281

                     31                     32                     33
                      A                      A                      A
 Frequencies --   3162.1108              3252.1538              3263.4461
 Red. masses --      1.0513                 1.1026                 1.1185
 Frc consts  --      6.1936                 6.8709                 7.0183
 IR Inten    --      6.0372                10.9651                 4.6025

 - Thermochemistry -
 -------------------
 Temperature   298.150 Kelvin.  Pressure   1.00000 Atm.
 Atom     1 has atomic number  6 and mass  12.00000

 Molecular mass:    68.06260 amu.
 Principal axes and moments of inertia in atomic units:
                           1         2         3
     Eigenvalues --   212.26832 403.16159 566.48006
           X            0.31823   0.85217  -0.41537
           Y            0.47612   0.23521   0.84734
           Z            0.81978  -0.46742  -0.33089
 This molecule is an asymmetric top.
 Rotational symmetry number  1.
 Rotational temperatures (Kelvin)      0.40804     0.21484     0.15290
 Rotational constants (GHZ):           8.50217     4.47647     3.18589
    1 imaginary frequencies ignored.
 Zero-point vibrational energy     288015.7 (Joules/Mol)
                                   68.83741 (Kcal/Mol)
 Warning -- explicit consideration of   5 degrees of freedom as
           vibrations may cause significant error
 Vibrational temperatures:    315.95   376.46   533.26   780.15   840.83
          (Kelvin)            929.00   997.81  1071.15  1108.55  1202.24
                             1290.31  1341.63  1483.78  1528.50  1626.74
                             1660.39  1757.70  1822.29  1878.62  2013.51
                             2045.46  2129.60  2152.92  2285.39  4342.09
                             4405.73  4409.68  4495.23  4531.62  4549.57
                             4679.12  4695.37

 Zero-point correction=                           0.109699 (Hartree/Particle)
 Thermal correction to Energy=                    0.115013
 Thermal correction to Enthalpy=                  0.115957
 Thermal correction to Gibbs Free Energy=         0.081873
 Sum of electronic and zero-point Energies=           -195.170349
 Sum of electronic and thermal Energies=              -195.165036
 Sum of electronic and thermal Enthalpies=            -195.164092
 Sum of electronic and thermal Free Energies=         -195.198175

                     E (Thermal)             CV                S
                      KCal/Mol        Cal/Mol-Kelvin    Cal/Mol-Kelvin
 Total                   72.171             20.119             71.735
 Electronic               0.000              0.000              0.000
 Translational            0.889              2.981             38.571
 Rotational               0.889              2.981             25.386
 Vibrational             70.394             14.157              7.777
 Vibration     1          0.647              1.811              1.962
 Vibration     2          0.669              1.743              1.651
 Vibration     3          0.743              1.533              1.077
 Vibration     4          0.897              1.157              0.561
 Vibration     5          0.941              1.065              0.477

 Optimization completed.
    -- Stationary point found.
 Normal termination of Gaussian 16 at Fri Jun 10 03:00:18 2022.
