 Gaussian 16, Revision A.03,
 Gaussian 16:  ES64L-G16RevA.03 25-Dec-2016

 ----------------------------------------------------------------------
 # Opt=(TS, CalcFC, noeigentest, Z-matrix, MaxStep=10) geom=allcheckpoi
 nt guess=read Field=read NoSymm B3LYP/Def2TZVP freq=noraman pop=none
 ----------------------------------------------------------------------

 Structure from the checkpoint file:  "checkpoint.chk"
 -----------------
 ts_zmat_initalOpt
 -----------------
 Charge =  0 Multiplicity = 1

 SCF Done:  E(RB3LYP) =  -195.282348316     A.U. after   10 cycles
 SCF Done:  E(RB3LYP) =  -195.282355088     A.U. after    9 cycles
 Optimization completed.
    -- Stationary point found.
 Normal termination of Gaussian 16 at Fri Jun 10 03:02:57 2022.

 --------------------------------------------------------------------
 #N Geom=AllCheck Guess=TCheck SCRF=Check GenChk RB3LYP/def2TZVP Freq
 --------------------------------------------------------------------

 Structure from the checkpoint file:  "checkpoint.chk"
 -----------------
 ts_zmat_initalOpt
 -----------------
 Charge =  0 Multiplicity = 1

                          Input orientation:
 ---------------------------------------------------------------------
 Center     Atomic      Atomic             Coordinates (Angstroms)
 Number     Number       Type             X           Y           Z
 ---------------------------------------------------------------------
      1          6           0        0.000000    0.000000    0.000000
      2          6           0        0.000000    0.000000    1.507263
      3          6           0        1.415118    0.000000   -0.339973
      4          1           0       -0.561879    0.840775   -0.412213
      5          1           0       -0.496385   -0.919032   -0.330340
      6          1           0        1.899327    0.830206   -0.831763
      7          1           0        2.012851   -0.865801   -0.093432
      8          6           0        0.744711    0.884163    2.272325
      9          1           0       -0.649074   -0.713215    2.005769
     10          6           0        1.948690    1.472449    1.965576
     11          1           0        0.276297    1.160609    3.220207
     12          1           0        2.697640    0.944749    1.399719
     13          1           0        2.247807    2.403809    2.438329
 ---------------------------------------------------------------------

 SCF Done:  E(RB3LYP) =  -195.282355088     A.U. after    1 cycles

 Isotropic polarizability for W=    0.000000       74.94 Bohr**3.
 End of Minotr F.D. properties file   721 does not exist.

 ******    1 imaginary frequencies (negative Signs) ******

                      1                      2                      3
                      A                      A                      A
 Frequencies --   -416.6050               218.8898               262.8020
 Red. masses --      1.9483                 2.2587                 2.2469
 Frc consts  --      0.1992                 0.0638                 0.0914
 IR Inten    --      0.4235                 0.4783                 1.0959

                      4                      5                      6
                      A                      A                      A
 Frequencies --    369.0131               539.9755               584.8162
 Red. masses --      2.2014                 1.2611                 1.3136
 Frc consts  --      0.1766                 0.2166                 0.2647
 IR Inten    --      7.5129                 8.6000                 3.2757

                      7                      8                      9
                      A                      A                      A
 Frequencies --    643.8468               684.3929               735.2994
 Red. masses --      1.4691                 1.3728                 1.2865
 Frc consts  --      0.3588                 0.3788                 0.4098
 IR Inten    --     20.5180                56.3516                39.7122

                     10                     11                     12
                      A                      A                      A
 Frequencies --    769.8756               839.0918               896.1113
 Red. masses --      1.3711                 1.5816                 1.4955
 Frc consts  --      0.4788                 0.6561                 0.7076
 IR Inten    --      5.4531                11.6760                 5.6853

                     13                     14                     15
                      A                      A                      A
 Frequencies --    933.5607              1031.2842              1061.7832
 Red. masses --      1.7909                 1.5577                 1.6847
 Frc consts  --      0.9196                 0.9761                 1.1190
 IR Inten    --      4.7631                 0.7280                18.2293

                     16                     17                     18
                      A                      A                      A
 Frequencies --   1131.5555              1153.9354              1221.7984
 Red. masses --      2.1441                 2.0364                 1.2195
 Frc consts  --      1.6175                 1.5976                 1.0725
 IR Inten    --     22.3664                 0.8004                 7.6858

                     19                     20                     21
                      A                      A                      A
 Frequencies --   1266.5840              1305.3025              1398.6502
 Red. masses --      1.2517                 1.3038                 1.3369
 Frc consts  --      1.1831                 1.3088                 1.5408
 IR Inten    --     21.4007                 6.0677                 1.6316

                     22                     23                     24
                      A                      A                      A
 Frequencies --   1420.5023              1479.2394              1495.6848
 Red. masses --      1.1119                 1.2740                 1.4394
 Frc consts  --      1.3219                 1.6424                 1.8972
 IR Inten    --     14.3993                 7.9240                 2.0121

                     25                     26                     27
                      A                      A                      A
 Frequencies --   1586.2215              3019.8628              3062.8836
 Red. masses --      4.0756                 1.0594                 1.0830
 Frc consts  --      6.0418                 5.6922                 5.9859
 IR Inten    --     26.7735                 4.3606                12.6767

                     28                     29                     30
                      A                      A                      A
 Frequencies --   3067.5340              3115.4075              3154.2710
 Red. masses --      1.1004                 1.0666                 1.0881
 Frc consts  --      6.1007                 6.0994                 6.3782
 IR Inten    --     12.0055                37.3386                 1.9127

                     31                     32                     33
                      A                      A                      A
 Frequencies --   3160.0512              3249.2866              3260.5498
 Red. masses --      1.0519                 1.1014                 1.1184
 Frc consts  --      6.1888                 6.8513                 7.0055
 IR Inten    --      7.2183                11.2812                 5.6666

 - Thermochemistry -
 -------------------
 Temperature   298.150 Kelvin.  Pressure   1.00000 Atm.
 Atom     1 has atomic number  6 and mass  12.00000

 Molecular mass:    68.06260 amu.
 Principal axes and moments of inertia in atomic units:
                           1         2         3
     Eigenvalues --   212.25271 403.78206 567.08519
           X            0.31833   0.85163  -0.41641
           Y            0.47660   0.23593   0.84687
           Z            0.81946  -0.46804  -0.33078
 This molecule is an asymmetric top.
 Rotational symmetry number  1.
 Rotational temperatures (Kelvin)      0.40807     0.21451     0.15274
 Rotational constants (GHZ):           8.50279     4.46959     3.18249
    1 imaginary frequencies ignored.
 Zero-point vibrational energy     287821.9 (Joules/Mol)
                                   68.79108 (Kcal/Mol)
 Warning -- explicit consideration of   5 degrees of freedom as
           vibrations may cause significant error
 Vibrational temperatures:    314.93   378.11   530.93   776.90   841.42
          (Kelvin)            926.35   984.69  1057.93  1107.68  1207.27
                             1289.30  1343.19  1483.79  1527.67  1628.06
                             1660.26  1757.90  1822.33  1878.04  2012.35
                             2043.79  2128.30  2151.96  2282.22  4344.91
                             4406.81  4413.50  4482.38  4538.29  4546.61
                             4675.00  4691.20

 Zero-point correction=                           0.109626 (Hartree/Particle)
 Thermal correction to Energy=                    0.114948
 Thermal correction to Enthalpy=                  0.115893
 Thermal correction to Gibbs Free Energy=         0.081794
 Sum of electronic and zero-point Energies=           -195.172730
 Sum of electronic and thermal Energies=              -195.167407
 Sum of electronic and thermal Enthalpies=            -195.166462
 Sum of electronic and thermal Free Energies=         -195.200562

                     E (Thermal)             CV                S
                      KCal/Mol        Cal/Mol-Kelvin    Cal/Mol-Kelvin
 Total                   72.131             20.160             71.768
 Electronic               0.000              0.000              0.000
 Translational            0.889              2.981             38.571
 Rotational               0.889              2.981             25.389
 Vibrational             70.354             14.198              7.808
 Vibration     1          0.647              1.812              1.968
 Vibration     2          0.670              1.741              1.643
 Vibration     3          0.741              1.536              1.084
 Vibration     4          0.895              1.162              0.565
 Vibration     5          0.942              1.064              0.477

 Optimization completed.
    -- Stationary point found.
 Normal termination of Gaussian 16 at Fri Jun 10 03:05:12 2022.
