 Gaussian 16, Revision A.03,
 Gaussian 16:  ES64L-G16RevA.03 25-Dec-2016

 ----------------------------------------------------------------------
 # Opt=(Z-matrix, MaxStep=10) B3LYP/Def2TZVP geom=allcheckpoint guess=r
 ead Field=read NoSymm freq=noraman pop=none
 ----------------------------------------------------------------------

 Structure from the checkpoint file:  "checkpoint.chk"
 ------------------
 int_zmat_initalOpt
 ------------------
 Charge =  0 Multiplicity = 1

 SCF Done:  E(RB3LYP) =  -312.117392807     A.U. after   10 cycles
 SCF Done:  E(RB3LYP) =  -312.117402900     A.U. after    8 cycles
 SCF Done:  E(RB3LYP) =  -312.117404803     A.U. after    7 cycles
 SCF Done:  E(RB3LYP) =  -312.117405328     A.U. after    7 cycles
 SCF Done:  E(RB3LYP) =  -312.117405672     A.U. after    7 cycles
 Optimization completed.
    -- Stationary point found.
 Normal termination of Gaussian 16 at Fri Jun 10 23:12:22 2022.

 --------------------------------------------------------------------
 #N Geom=AllCheck Guess=TCheck SCRF=Check GenChk RB3LYP/def2TZVP Freq
 --------------------------------------------------------------------

 Structure from the checkpoint file:  "checkpoint.chk"
 ------------------
 int_zmat_initalOpt
 ------------------
 Charge =  0 Multiplicity = 1

                          Input orientation:
 ---------------------------------------------------------------------
 Center     Atomic      Atomic             Coordinates (Angstroms)
 Number     Number       Type             X           Y           Z
 ---------------------------------------------------------------------
      1          1           0        0.000000    0.000000    0.000000
      2          6           0        0.000000    0.000000    1.089166
      3          6           0        1.378569    0.000000    1.791749
      4          6           0       -0.353167    1.326740    1.809771
      5          1           0       -0.635715   -0.817952    1.433206
      6          1           0       -1.336325    1.344125    2.291727
      7          6           0        0.822384    1.004381    2.825520
      8          6           0       -0.188004    2.599832    1.040068
      9          1           0        2.143068    0.452987    1.161275
     10          1           0        1.757163   -0.948054    2.172479
     11          1           0        0.376737    0.451981    3.660227
     12          1           0       -0.208700    3.499175    1.650696
     13          6           0        1.663753    2.102749    3.384104
     14          6           0       -0.018911    2.740872   -0.269477
     15          1           0        0.031978    1.896187   -0.945389
     16          1           0        0.098388    3.721072   -0.713723
     17          6           0        2.962278    2.279478    3.173914
     18          1           0        1.144873    2.797345    4.041926
     19          1           0        3.503263    3.092987    3.639094
     20          1           0        3.540131    1.617399    2.540718
 ---------------------------------------------------------------------

 SCF Done:  E(RB3LYP) =  -312.117405672     A.U. after    1 cycles

 Isotropic polarizability for W=    0.000000       92.31 Bohr**3.
 End of Minotr F.D. properties file   721 does not exist.

                      1                      2                      3
                      A                      A                      A
 Frequencies --     63.4016                95.3165               107.3248
 Red. masses --      2.9056                 2.1871                 2.3260
 Frc consts  --      0.0069                 0.0117                 0.0158
 IR Inten    --      0.0729                 0.0651                 0.0557

                      4                      5                      6
                      A                      A                      A
 Frequencies --    205.8098               251.4240               303.0825
 Red. masses --      2.1327                 2.4447                 2.4219
 Frc consts  --      0.0532                 0.0911                 0.1311
 IR Inten    --      0.0392                 0.3284                 0.4601

                      7                      8                      9
                      A                      A                      A
 Frequencies --    398.5989               493.6133               532.0816
 Red. masses --      2.0059                 2.1688                 2.1294
 Frc consts  --      0.1878                 0.3113                 0.3552
 IR Inten    --      3.6033                 2.0562                 0.8211

                     10                     11                     12
                      A                      A                      A
 Frequencies --    602.2398               642.1184               734.5112
 Red. masses --      1.9665                 2.0255                 1.5193
 Frc consts  --      0.4202                 0.4921                 0.4829
 IR Inten    --      3.4506                 5.4193                 2.4279

                     13                     14                     15
                      A                      A                      A
 Frequencies --    768.2501               813.3491               908.0876
 Red. masses --      1.8165                 2.1844                 2.1759
 Frc consts  --      0.6317                 0.8514                 1.0572
 IR Inten    --      5.1178                 2.5837                 4.1933

                     16                     17                     18
                      A                      A                      A
 Frequencies --    937.3770               941.6785               947.6564
 Red. masses --      2.6734                 1.5124                 2.0434
 Frc consts  --      1.3840                 0.7902                 1.0812
 IR Inten    --      1.7726                34.7468                10.8856

                     19                     20                     21
                      A                      A                      A
 Frequencies --    971.4533               978.8372              1025.1385
 Red. masses --      1.3300                 1.6909                 1.2983
 Frc consts  --      0.7395                 0.9545                 0.8039
 IR Inten    --     40.9049                 0.3629                 1.7186

                     22                     23                     24
                      A                      A                      A
 Frequencies --   1029.3700              1035.7225              1062.4411
 Red. masses --      1.0986                 1.1275                 1.8506
 Frc consts  --      0.6858                 0.7126                 1.2307
 IR Inten    --     10.4444                 7.9672                 1.1798

                     25                     26                     27
                      A                      A                      A
 Frequencies --   1081.5421              1121.7814              1159.4360
 Red. masses --      1.7501                 1.5217                 1.8211
 Frc consts  --      1.2062                 1.1282                 1.4423
 IR Inten    --     11.5006                 5.2699                 0.4537

                     28                     29                     30
                      A                      A                      A
 Frequencies --   1202.7338              1228.0486              1255.9730
 Red. masses --      1.3544                 1.3016                 1.3352
 Frc consts  --      1.1544                 1.1566                 1.2410
 IR Inten    --      2.0207                 0.7445                 0.0936

                     31                     32                     33
                      A                      A                      A
 Frequencies --   1266.6711              1276.3782              1333.0031
 Red. masses --      1.3626                 1.4126                 1.3003
 Frc consts  --      1.2880                 1.3559                 1.3613
 IR Inten    --      2.5000                 0.4931                 1.3855

                     34                     35                     36
                      A                      A                      A
 Frequencies --   1340.6778              1357.7281              1378.3776
 Red. masses --      1.2929                 1.4374                 1.6721
 Frc consts  --      1.3692                 1.5611                 1.8718
 IR Inten    --      0.0193                 1.4351                 5.0623

                     37                     38                     39
                      A                      A                      A
 Frequencies --   1453.8472              1461.1415              1487.6639
 Red. masses --      1.1982                 1.2075                 1.0920
 Frc consts  --      1.4921                 1.5189                 1.4239
 IR Inten    --      2.3980                 6.8755                 2.4058

                     40                     41                     42
                      A                      A                      A
 Frequencies --   1505.4038              1701.5872              1705.3796
 Red. masses --      1.1260                 4.5059                 4.5144
 Frc consts  --      1.5034                 7.6868                 7.7356
 IR Inten    --      4.5055                20.5671                 8.8191

                     43                     44                     45
                      A                      A                      A
 Frequencies --   2998.6192              3013.3672              3050.5681
 Red. masses --      1.0833                 1.0833                 1.0631
 Frc consts  --      5.7389                 5.7958                 5.8291
 IR Inten    --     14.6150                55.0147                62.0610

                     46                     47                     48
                      A                      A                      A
 Frequencies --   3066.7330              3096.0297              3112.1523
 Red. masses --      1.0588                 1.1026                 1.0857
 Frc consts  --      5.8668                 6.2268                 6.1958
 IR Inten    --     25.5206                19.5271                14.1294

                     49                     50                     51
                      A                      A                      A
 Frequencies --   3116.5156              3125.9794              3143.6251
 Red. masses --      1.1076                 1.0828                 1.0642
 Frc consts  --      6.3385                 6.2339                 6.1964
 IR Inten    --     37.4094                17.5649                 7.3507

                     52                     53                     54
                      A                      A                      A
 Frequencies --   3147.8382              3218.1886              3227.0264
 Red. masses --      1.0623                 1.1150                 1.1157
 Frc consts  --      6.2018                 6.8040                 6.8455
 IR Inten    --      2.1183                13.4788                 6.9638

 - Thermochemistry -
 -------------------
 Temperature   298.150 Kelvin.  Pressure   1.00000 Atm.
 Atom     1 has atomic number  1 and mass   1.00783

 Molecular mass:   108.09390 amu.
 Principal axes and moments of inertia in atomic units:
                           1         2         3
     Eigenvalues --   646.447971063.587251371.71885
           X            0.67019   0.12251   0.73201
           Y           -0.00123   0.98646  -0.16397
           Z            0.74219  -0.10899  -0.66127
 This molecule is an asymmetric top.
 Rotational symmetry number  1.
 Warning -- assumption of classical behavior for rotation
           may cause significant error
 Rotational temperatures (Kelvin)      0.13398     0.08144     0.06314
 Rotational constants (GHZ):           2.79178     1.69684     1.31568
 Zero-point vibrational energy     463450.7 (Joules/Mol)
                                  110.76737 (Kcal/Mol)
 Warning -- explicit consideration of  10 degrees of freedom as
           vibrations may cause significant error
 Vibrational temperatures:     91.22   137.14   154.42   296.11   361.74
          (Kelvin)            436.07   573.49   710.20   765.55   866.49
                              923.87  1056.80  1105.34  1170.23  1306.54
                             1348.68  1354.87  1363.47  1397.70  1408.33
                             1474.95  1481.03  1490.17  1528.62  1556.10
                             1613.99  1668.17  1730.47  1766.89  1807.07
                             1822.46  1836.42  1917.89  1928.94  1953.47
                             1983.18  2091.76  2102.26  2140.42  2165.94
                             2448.20  2453.66  4314.34  4335.56  4389.09
                             4412.34  4454.50  4477.69  4483.97  4497.59
                             4522.98  4529.04  4630.26  4642.97

 Zero-point correction=                           0.176519 (Hartree/Particle)
 Thermal correction to Energy=                    0.184976
 Thermal correction to Enthalpy=                  0.185920
 Thermal correction to Gibbs Free Energy=         0.143175
 Sum of electronic and zero-point Energies=           -311.940887
 Sum of electronic and thermal Energies=              -311.932430
 Sum of electronic and thermal Enthalpies=            -311.931485
 Sum of electronic and thermal Free Energies=         -311.974230

                     E (Thermal)             CV                S
                      KCal/Mol        Cal/Mol-Kelvin    Cal/Mol-Kelvin
 Total                  116.074             31.634             89.964
 Electronic               0.000              0.000              0.000
 Translational            0.889              2.981             39.950
 Rotational               0.889              2.981             28.335
 Vibrational            114.297             25.672             21.679
 Vibration     1          0.597              1.972              4.348
 Vibration     2          0.603              1.953              3.548
 Vibration     3          0.606              1.943              3.317
 Vibration     4          0.640              1.832              2.081
 Vibration     5          0.663              1.760              1.721
 Vibration     6          0.695              1.668              1.400
 Vibration     7          0.765              1.473              0.968
 Vibration     8          0.849              1.264              0.674
 Vibration     9          0.887              1.179              0.583
 Vibration    10          0.961              1.027              0.446

                       ! Non-Optimized Parameters !
 Normal termination of Gaussian 16 at Fri Jun 10 23:20:56 2022.
