 Gaussian 16, Revision A.03,
 Gaussian 16:  ES64L-G16RevA.03 25-Dec-2016

 --------------------------
 # sp B3LYP/Def2TZVP NoSymm
 --------------------------

 ----------------------------------
 int_initalOptXYZ_aligned_AlignedSp
 ----------------------------------
 Symbolic Z-matrix:
 Charge =  0 Multiplicity = 1

                          Input orientation:
 ---------------------------------------------------------------------
 Center     Atomic      Atomic             Coordinates (Angstroms)
 Number     Number       Type             X           Y           Z
 ---------------------------------------------------------------------
      1          6           0       -0.426588   -0.455095   -0.295457
      2          6           0       -1.731775   -0.534364   -0.526211
      3          1           0       -2.266028    0.364641   -0.819053
      4          6           0       -2.567027   -1.774818   -0.419678
      5          1           0       -1.988723   -2.642518   -0.102132
      6          1           0       -3.032563   -2.017401   -1.379976
      7          1           0       -3.383125   -1.636392    0.295928
      8          6           0        0.481471   -1.585870    0.147085
      9          8           0        1.796528   -1.038784    0.208843
     10          1           0        0.502342   -2.426583   -0.549599
     11          1           0        0.181997   -1.968052    1.133184
     12          6           0        1.664202    0.357476    0.447817
     13          6           0        0.458099    0.784974   -0.395741
     14          1           0        2.599109    0.836075    0.158931
     15          1           0        1.479583    0.549629    1.513498
     16          6           0       -0.197464    2.087644   -0.048929
     17          1           0        0.802024    0.852182   -1.437998
     18          6           0        0.244661    2.988767    0.820026
     19          1           0       -1.110757    2.304305   -0.595511
     20          1           0        1.153272    2.852045    1.393344
     21          1           0       -0.296182    3.911007    0.990110
 ---------------------------------------------------------------------

 SCF Done:  E(RB3LYP) =  -387.391420244     A.U. after   14 cycles

 Alpha  occ. eigenvalues --  -19.12781 -10.21971 -10.21703 -10.18887 -10.18275
 Alpha  occ. eigenvalues --  -10.18083 -10.17157 -10.17130 -10.16874  -1.04183
 Alpha  occ. eigenvalues --   -0.82923  -0.79059  -0.73403  -0.72612  -0.64677
 Alpha  occ. eigenvalues --   -0.62880  -0.56557  -0.53108  -0.50644  -0.48530
 Alpha  occ. eigenvalues --   -0.46631  -0.45152  -0.43154  -0.41954  -0.41340
 Alpha  occ. eigenvalues --   -0.40124  -0.38922  -0.38278  -0.36454  -0.34031
 Alpha  occ. eigenvalues --   -0.31955  -0.27092  -0.26316  -0.24461
 Alpha virt. eigenvalues --   -0.00091   0.00301   0.03545   0.05189   0.05550
 Alpha virt. eigenvalues --    0.06703   0.08174   0.08670   0.10044   0.10933
 Alpha virt. eigenvalues --    0.11157   0.11285   0.13107   0.13538   0.14031

 Mulliken charges:
               1
     1  C   -0.055393
     2  C   -0.119525
     3  H    0.096490
     4  C   -0.338793
     5  H    0.109851
     6  H    0.117959
     7  H    0.117145
     8  C   -0.011367
     9  O   -0.330017
    10  H    0.109244
    11  H    0.084898
    12  C   -0.039184
    13  C    0.081452
    14  H    0.104541
    15  H    0.075477
    16  C   -0.142428
    17  H    0.077469
    18  C   -0.261309
    19  H    0.101672
    20  H    0.109905
    21  H    0.111913
 Sum of Mulliken charges =  -0.00000

 Dipole moment (field-independent basis, Debye):
    X=             -1.3708    Y=              0.4488    Z=             -0.1839  Tot=              1.4540
 Quadrupole moment (field-independent basis, Debye-Ang):
   XX=            -57.0692   YY=            -54.6019   ZZ=            -56.2377
   XY=              3.3363   XZ=              1.2283   YZ=              0.5701

 Normal termination of Gaussian 16 at Fri Jun 10 11:17:26 2022.
