 Gaussian 16, Revision A.03,
 Gaussian 16:  ES64L-G16RevA.03 25-Dec-2016

 ----------------------------------------------------------------------
 # Opt=(TS, CalcFC, noeigentest, Z-matrix, MaxStep=10) geom=allcheckpoi
 nt guess=read Field=read NoSymm B3LYP/Def2TZVP freq=noraman pop=none
 ----------------------------------------------------------------------

 Structure from the checkpoint file:  "checkpoint.chk"
 -----------------
 ts_zmat_initalOpt
 -----------------
 Charge =  0 Multiplicity = 1

 SCF Done:  E(RB3LYP) =  -439.155772841     A.U. after   11 cycles
 SCF Done:  E(RB3LYP) =  -439.155783910     A.U. after   13 cycles
 SCF Done:  E(RB3LYP) =  -439.155784124     A.U. after    9 cycles
 Optimization completed.
    -- Stationary point found.

 1\1\GINC-BHC0108\FTS\RB3LYP\def2TZVP\C8H7N1O1\DHANAWAY\10-Jun-2022\1\\
 # Opt=(TS, CalcFC, noeigentest, Z-matrix, MaxStep=10) geom=allcheckpoi
 nt guess=read Field=read NoSymm B3LYP/Def2TZVP freq=noraman pop=none\\
 ts_zmat_initalOpt\\0,1\C\C,1,R2\C,1,R3,2,A3\H,1,R4,2,A4,3,D4,0\O,3,R5,
 1,A5,2,D5,0\C,2,R6,1,A6,3,D6,0\H,2,R7,1,A7,6,D7,0\C,6,R8,2,A8,1,D8,0\H
 ,6,R9,2,A9,8,D9,0\C,8,R10,6,A10,2,D10,0\N,8,R11,6,A11,10,D11,0\H,10,R1
 2,8,A12,6,D12,0\C,10,R13,8,A13,12,D13,0\C,11,R14,8,A14,6,D14,0\H,11,R1
 5,8,A15,14,D15,0\H,13,R16,10,A16,8,D16,0\H,14,R17,11,A17,8,D17,0\\R2=1

 Normal termination of Gaussian 16 at Fri Jun 10 04:36:54 2022.

 --------------------------------------------------------------------
 #N Geom=AllCheck Guess=TCheck SCRF=Check GenChk RB3LYP/def2TZVP Freq
 --------------------------------------------------------------------

 Structure from the checkpoint file:  "checkpoint.chk"
 -----------------
 ts_zmat_initalOpt
 -----------------
 Charge =  0 Multiplicity = 1

                          Input orientation:
 ---------------------------------------------------------------------
 Center     Atomic      Atomic             Coordinates (Angstroms)
 Number     Number       Type             X           Y           Z
 ---------------------------------------------------------------------
      1          6           0        0.000000    0.000000    0.000000
      2          6           0        0.000000    0.000000    1.434039
      3          6           0        1.050783    0.000000   -0.864591
      4          1           0       -0.920456    0.309275   -0.493572
      5          8           0        1.412298    0.016244   -1.991966
      6          6           0        1.079185   -0.092530    2.250387
      7          1           0       -0.972256    0.127500    1.895546
      8          6           0        2.380597   -0.225208    1.682783
      9          1           0        0.963990    0.015483    3.320879
     10          6           0        2.699367   -0.763121    0.417059
     11          7           0        3.531020    0.274137    2.203960
     12          1           0        2.162574   -1.607228    0.007320
     13          6           0        4.105646   -0.556135    0.220258
     14          6           0        4.581740    0.077719    1.328449
     15          1           0        3.606178    0.750496    3.089195
     16          1           0        4.698261   -0.891762   -0.613607
     17          1           0        5.579266    0.388754    1.589651
 ---------------------------------------------------------------------

 SCF Done:  E(RB3LYP) =  -439.155784124     A.U. after    1 cycles

 Isotropic polarizability for W=    0.000000      109.50 Bohr**3.
 End of Minotr F.D. properties file   721 does not exist.

 ******    1 imaginary frequencies (negative Signs) ******

                      1                      2                      3
                      A                      A                      A
 Frequencies --   -323.1146               103.0837               139.7701
 Red. masses --      7.0866                 5.8445                 4.6171
 Frc consts  --      0.4359                 0.0366                 0.0531
 IR Inten    --    180.5121                 3.2163                 3.1586

                      4                      5                      6
                      A                      A                      A
 Frequencies --    268.3785               281.6944               311.4787
 Red. masses --      4.5238                 3.5479                 7.2632
 Frc consts  --      0.1920                 0.1659                 0.4152
 IR Inten    --     27.2001                 4.8105                 9.0511

                      7                      8                      9
                      A                      A                      A
 Frequencies --    455.4730               509.3938               538.5478
 Red. masses --      4.3005                 4.7840                 2.8641
 Frc consts  --      0.5256                 0.7314                 0.4894
 IR Inten    --     17.0755                 1.3287                 1.4963

                     10                     11                     12
                      A                      A                      A
 Frequencies --    598.5623               611.1927               627.7353
 Red. masses --      1.5561                 3.5169                 2.0912
 Frc consts  --      0.3285                 0.7740                 0.4855
 IR Inten    --     32.0952                 9.8269                13.1328

                     13                     14                     15
                      A                      A                      A
 Frequencies --    666.9551               704.4768               755.3786
 Red. masses --      1.7236                 2.8051                 1.3082
 Frc consts  --      0.4517                 0.8202                 0.4398
 IR Inten    --     63.1835                21.4937                73.1792

                     16                     17                     18
                      A                      A                      A
 Frequencies --    772.1362               795.7859               852.0965
 Red. masses --      1.7002                 2.0780                 4.1889
 Frc consts  --      0.5972                 0.7753                 1.7920
 IR Inten    --      3.3010                79.5306                47.6678

                     19                     20                     21
                      A                      A                      A
 Frequencies --    886.1908               896.9205               954.5788
 Red. masses --      1.4676                 3.9258                 1.3780
 Frc consts  --      0.6791                 1.8607                 0.7398
 IR Inten    --      1.2691                12.9345                 5.4437

                     22                     23                     24
                      A                      A                      A
 Frequencies --    971.4291               989.6855              1049.1756
 Red. masses --      1.9958                 2.5154                 1.3324
 Frc consts  --      1.1096                 1.4516                 0.8641
 IR Inten    --     14.9384                 3.0057                 6.9187

                     25                     26                     27
                      A                      A                      A
 Frequencies --   1103.9698              1126.4308              1147.2684
 Red. masses --      2.0271                 1.6414                 1.4179
 Frc consts  --      1.4556                 1.2271                 1.0996
 IR Inten    --     14.1082                13.4856                 9.7455

                     28                     29                     30
                      A                      A                      A
 Frequencies --   1206.1750              1251.9759              1288.1860
 Red. masses --      1.1280                 1.9737                 1.7245
 Frc consts  --      0.9669                 1.8228                 1.6861
 IR Inten    --      5.8973                 1.1412                 3.7701

                     31                     32                     33
                      A                      A                      A
 Frequencies --   1395.4189              1415.5758              1437.1159
 Red. masses --      1.8080                 2.8926                 3.3021
 Frc consts  --      2.0743                 3.4151                 4.0181
 IR Inten    --      4.9326                 8.4529                43.4706

                     34                     35                     36
                      A                      A                      A
 Frequencies --   1458.4243              1521.8244              1599.3734
 Red. masses --      2.1935                 4.4191                 3.5246
 Frc consts  --      2.7488                 6.0299                 5.3120
 IR Inten    --      1.3750                 3.6083                24.3879

                     37                     38                     39
                      A                      A                      A
 Frequencies --   1611.0590              1948.4169              3092.6630
 Red. masses --      5.2976                12.6072                 1.0828
 Frc consts  --      8.1013                28.1990                 6.1021
 IR Inten    --     56.1363               807.5831                49.9084

                     40                     41                     42
                      A                      A                      A
 Frequencies --   3164.9739              3191.1394              3192.8462
 Red. masses --      1.0866                 1.0903                 1.0931
 Frc consts  --      6.4129                 6.5417                 6.5657
 IR Inten    --     12.9109                 2.1319                 4.2766

                     43                     44                     45
                      A                      A                      A
 Frequencies --   3251.8902              3270.1929              3618.0164
 Red. masses --      1.0908                 1.1048                 1.0809
 Frc consts  --      6.7964                 6.9611                 8.3365
 IR Inten    --      5.0354                 1.4018               121.0620

 - Thermochemistry -
 -------------------
 Temperature   298.150 Kelvin.  Pressure   1.00000 Atm.
 Atom     1 has atomic number  6 and mass  12.00000

 Molecular mass:   133.05276 amu.
 Principal axes and moments of inertia in atomic units:
                           1         2         3
     Eigenvalues --   829.322371390.329532121.46238
           X            0.86868  -0.49284   0.05011
           Y           -0.01530   0.07440   0.99711
           Z            0.49514   0.86694  -0.05708
 This molecule is an asymmetric top.
 Rotational symmetry number  1.
 Warning -- assumption of classical behavior for rotation
           may cause significant error
 Rotational temperatures (Kelvin)      0.10444     0.06230     0.04083
 Rotational constants (GHZ):           2.17616     1.29807     0.85071
    1 imaginary frequencies ignored.
 Zero-point vibrational energy     341133.4 (Joules/Mol)
                                   81.53285 (Kcal/Mol)
 Warning -- explicit consideration of  10 degrees of freedom as
           vibrations may cause significant error
 Vibrational temperatures:    148.31   201.10   386.14   405.30   448.15
          (Kelvin)            655.32   732.90   774.85   861.20   879.37
                              903.17   959.60  1013.58  1086.82  1110.93
                             1144.96  1225.98  1275.03  1290.47  1373.43
                             1397.67  1423.94  1509.53  1588.37  1620.68
                             1650.66  1735.42  1801.31  1853.41  2007.70
                             2036.70  2067.69  2098.35  2189.57  2301.14
                             2317.95  2803.34  4449.65  4553.69  4591.34
                             4593.79  4678.74  4705.08  5205.52

 Zero-point correction=                           0.129931 (Hartree/Particle)
 Thermal correction to Energy=                    0.137572
 Thermal correction to Enthalpy=                  0.138516
 Thermal correction to Gibbs Free Energy=         0.097484
 Sum of electronic and zero-point Energies=           -439.025853
 Sum of electronic and thermal Energies=              -439.018212
 Sum of electronic and thermal Enthalpies=            -439.017268
 Sum of electronic and thermal Free Energies=         -439.058300

                     E (Thermal)             CV                S
                      KCal/Mol        Cal/Mol-Kelvin    Cal/Mol-Kelvin
 Total                   86.328             30.495             86.358
 Electronic               0.000              0.000              0.000
 Translational            0.889              2.981             40.569
 Rotational               0.889              2.981             29.282
 Vibrational             84.550             24.534             16.506
 Vibration     1          0.605              1.947              3.395
 Vibration     2          0.615              1.914              2.807
 Vibration     3          0.673              1.731              1.607
 Vibration     4          0.681              1.708              1.523
 Vibration     5          0.700              1.652              1.354
 Vibration     6          0.814              1.349              0.779
 Vibration     7          0.865              1.229              0.635
 Vibration     8          0.894              1.165              0.568
 Vibration     9          0.957              1.035              0.452
 Vibration    10          0.970              1.008              0.431

 Optimization completed.
    -- Stationary point found.
 Normal termination of Gaussian 16 at Fri Jun 10 04:48:33 2022.
