 Gaussian 16, Revision A.03,
 Gaussian 16:  ES64L-G16RevA.03 25-Dec-2016

 ----------------------------------------------------------------------
 # Opt=(Z-matrix, MaxStep=10) B3LYP/Def2TZVP Field=read NoSymm freq=nor
 aman pop=none
 ----------------------------------------------------------------------

 ------------------
 int_zmat_initalOpt
 ------------------
 Symbolic Z-matrix:
 Charge =  0 Multiplicity = 1

 SCF Done:  E(RB3LYP) =  -309.742686735     A.U. after   13 cycles
 SCF Done:  E(RB3LYP) =  -309.742688939     A.U. after    7 cycles
 Optimization completed.
    -- Stationary point found.
 Normal termination of Gaussian 16 at Fri Jun 10 02:47:19 2022.

 --------------------------------------------------------------------
 #N Geom=AllCheck Guess=TCheck SCRF=Check GenChk RB3LYP/def2TZVP Freq
 --------------------------------------------------------------------

 Structure from the checkpoint file:  "checkpoint.chk"
 ------------------
 int_zmat_initalOpt
 ------------------
 Charge =  0 Multiplicity = 1

                          Input orientation:
 ---------------------------------------------------------------------
 Center     Atomic      Atomic             Coordinates (Angstroms)
 Number     Number       Type             X           Y           Z
 ---------------------------------------------------------------------
      1          6           0        0.000000    0.000000    0.000000
      2          6           0        0.000000    0.000000    1.382451
      3          6           0        1.174713    0.000000   -0.742391
      4          6           0       -0.890224   -0.000001   -1.231510
      5          1           0       -0.906352    0.000000    1.975840
      6          6           0        1.257004   -0.000002    1.995811
      7          6           0        2.423361   -0.000002   -0.149052
      8          6           0        0.444463    0.000006   -2.074999
      9          1           0       -1.512692   -0.887091   -1.365756
     10          1           0       -1.512698    0.887084   -1.365752
     11          6           0        2.437858   -0.000003    1.249541
     12          1           0        1.321859   -0.000002    3.076713
     13          1           0        3.348319   -0.000004   -0.712998
     14          1           0        0.590346    0.887097   -2.694839
     15          1           0        0.590349   -0.887078   -2.694848
     16          1           0        3.386298   -0.000005    1.772052
 ---------------------------------------------------------------------

 SCF Done:  E(RB3LYP) =  -309.742688939     A.U. after    1 cycles

 Isotropic polarizability for W=    0.000000       87.87 Bohr**3.
 End of Minotr F.D. properties file   721 does not exist.

                      1                      2                      3
                      A                      A                      A
 Frequencies --    192.6343               214.3428               401.8410
 Red. masses --      1.8851                 3.1782                 2.7545
 Frc consts  --      0.0412                 0.0860                 0.2621
 IR Inten    --      0.0002                 7.0939                 5.4725

                      4                      5                      6
                      A                      A                      A
 Frequencies --    414.9370               490.4840               550.5709
 Red. masses --      3.4052                 2.8882                 5.7738
 Frc consts  --      0.3454                 0.4094                 1.0312
 IR Inten    --      2.1843                 0.0000                 0.2146

                      7                      8                      9
                      A                      A                      A
 Frequencies --    645.9268               716.8912               732.5365
 Red. masses --      6.3050                 3.4700                 1.1377
 Frc consts  --      1.5499                 1.0507                 0.3597
 IR Inten    --      0.1240                 0.0000                37.2213

                     10                     11                     12
                      A                      A                      A
 Frequencies --    793.2278               798.9942               867.1696
 Red. masses --      3.8556                 1.1842                 4.4337
 Frc consts  --      1.4293                 0.4454                 1.9644
 IR Inten    --      0.3710                24.5897                 0.6461

                     13                     14                     15
                      A                      A                      A
 Frequencies --    883.3281               906.2627               942.0643
 Red. masses --      1.2642                 3.4478                 1.3604
 Frc consts  --      0.5812                 1.6684                 0.7114
 IR Inten    --      0.0000                 0.7520                 0.4070

                     16                     17                     18
                      A                      A                      A
 Frequencies --    983.0636              1024.4880              1049.2649
 Red. masses --      1.2679                 2.1673                 2.0819
 Frc consts  --      0.7219                 1.3402                 1.3504
 IR Inten    --      0.0000                 2.9505                 0.0000

                     19                     20                     21
                      A                      A                      A
 Frequencies --   1093.0776              1105.1157              1154.5831
 Red. masses --      1.1749                 2.8638                 1.7800
 Frc consts  --      0.8271                 2.0607                 1.3980
 IR Inten    --      0.2147                 0.2535                 1.3993

                     22                     23                     24
                      A                      A                      A
 Frequencies --   1179.3716              1185.2613              1205.4563
 Red. masses --      1.1927                 1.1349                 1.6917
 Frc consts  --      0.9774                 0.9393                 1.4484
 IR Inten    --      0.0767                 0.0000                 0.0348

                     25                     26                     27
                      A                      A                      A
 Frequencies --   1222.3383              1234.7172              1311.1252
 Red. masses --      2.3921                 1.4791                 1.5455
 Frc consts  --      2.1058                 1.3286                 1.5654
 IR Inten    --      3.2940                 5.2269                 2.2336

                     28                     29                     30
                      A                      A                      A
 Frequencies --   1365.2029              1466.7417              1480.4681
 Red. masses --      4.2696                 1.0854                 1.3359
 Frc consts  --      4.6885                 1.3758                 1.7251
 IR Inten    --      2.0324                 0.9950                 3.2997

                     31                     32                     33
                      A                      A                      A
 Frequencies --   1495.9186              1500.8545              1636.1219
 Red. masses --      2.2603                 1.9333                 6.5866
 Frc consts  --      2.9801                 2.5658                10.3883
 IR Inten    --      3.3505                14.0122                 0.0196

                     34                     35                     36
                      A                      A                      A
 Frequencies --   1644.2721              3037.9510              3043.2375
 Red. masses --      6.6174                 1.0557                 1.0581
 Frc consts  --     10.5411                 5.7408                 5.7735
 IR Inten    --      0.3626                42.6211                84.2499

                     37                     38                     39
                      A                      A                      A
 Frequencies --   3071.9173              3087.6728              3165.3416
 Red. masses --      1.1086                 1.1069                 1.0861
 Frc consts  --      6.1635                 6.2174                 6.4115
 IR Inten    --      0.0000                45.6250                 4.3618

                     40                     41                     42
                      A                      A                      A
 Frequencies --   3171.2225              3180.9359              3192.1396
 Red. masses --      1.0889                 1.0930                 1.0961
 Frc consts  --      6.4517                 6.5159                 6.5807
 IR Inten    --      1.1772                25.0632                12.3999

 - Thermochemistry -
 -------------------
 Temperature   298.150 Kelvin.  Pressure   1.00000 Atm.
 Atom     1 has atomic number  6 and mass  12.00000

 Molecular mass:   104.06260 amu.
 Principal axes and moments of inertia in atomic units:
                           1         2         3
     Eigenvalues --   402.60673 862.875371242.82492
           X            0.53423   0.84534   0.00000
           Y           -0.00000   0.00000   1.00000
           Z            0.84534  -0.53423   0.00000
 This molecule is an asymmetric top.
 Rotational symmetry number  1.
 Rotational temperatures (Kelvin)      0.21513     0.10038     0.06969
 Rotational constants (GHZ):           4.48264     2.09154     1.45213
 Zero-point vibrational energy     351935.8 (Joules/Mol)
                                   84.11468 (Kcal/Mol)
 Warning -- explicit consideration of   6 degrees of freedom as
           vibrations may cause significant error
 Vibrational temperatures:    277.16   308.39   578.16   597.00   705.70
          (Kelvin)            792.15   929.34  1031.45  1053.96  1141.28
                             1149.57  1247.66  1270.91  1303.91  1355.42
                             1414.41  1474.01  1509.66  1572.69  1590.02
                             1661.19  1696.85  1705.33  1734.38  1758.67
                             1776.48  1886.42  1964.22  2110.31  2130.06
                             2152.29  2159.39  2354.01  2365.74  4370.93
                             4378.54  4419.80  4442.47  4554.22  4562.68
                             4576.66  4592.78

 Zero-point correction=                           0.134045 (Hartree/Particle)
 Thermal correction to Energy=                    0.140032
 Thermal correction to Enthalpy=                  0.140977
 Thermal correction to Gibbs Free Energy=         0.104220
 Sum of electronic and zero-point Energies=           -309.608644
 Sum of electronic and thermal Energies=              -309.602657
 Sum of electronic and thermal Enthalpies=            -309.601712
 Sum of electronic and thermal Free Energies=         -309.638469

                     E (Thermal)             CV                S
                      KCal/Mol        Cal/Mol-Kelvin    Cal/Mol-Kelvin
 Total                   87.872             24.316             77.362
 Electronic               0.000              0.000              0.000
 Translational            0.889              2.981             39.837
 Rotational               0.889              2.981             27.559
 Vibrational             86.094             18.354              9.966
 Vibration     1          0.635              1.850              2.202
 Vibration     2          0.644              1.819              2.006
 Vibration     3          0.767              1.466              0.956
 Vibration     4          0.778              1.438              0.909
 Vibration     5          0.846              1.271              0.682
 Vibration     6          0.906              1.138              0.543

 Optimization completed.
    -- Stationary point found.
 Normal termination of Gaussian 16 at Fri Jun 10 02:53:34 2022.
