 Gaussian 16, Revision A.03,
 Gaussian 16:  ES64L-G16RevA.03 25-Dec-2016

 ----------------------------------------------------------------------
 # Opt=(TS, CalcFC, noeigentest, Z-matrix, MaxStep=10) geom=allcheckpoi
 nt guess=read Field=read NoSymm B3LYP/Def2TZVP
 ----------------------------------------------------------------------

 Structure from the checkpoint file:  "checkpoint.chk"
 -----------------
 ts_zmat_initalOpt
 -----------------
 Charge =  0 Multiplicity = 1

 SCF Done:  E(RB3LYP) =  -269.398449735     A.U. after   11 cycles

  Exact polarizability:   0.000   0.000   0.000   0.000   0.000   0.000
 Approx polarizability: 126.513 -11.427  93.894   9.717  33.388 112.210

 SCF Done:  E(RB3LYP) =  -269.398479742     A.U. after   12 cycles
 Optimization completed.
    -- Stationary point found.

                         Z-Matrix orientation:
 ---------------------------------------------------------------------
 Center     Atomic      Atomic             Coordinates (Angstroms)
 Number     Number       Type             X           Y           Z
 ---------------------------------------------------------------------
      1          1           0        0.000000    0.000000    0.000000
      2          6           0        0.000000    0.000000    1.082595
      3          6           0        1.191521    0.000000    1.781428
      4          6           0       -1.181793    0.145187    1.810427
      5          1           0        2.116042   -0.246626    1.270030
      6          6           0        1.277564    0.570363    3.065909
      7          1           0       -2.099446    0.427230    1.308941
      8          1           0       -1.309673   -0.450742    2.704235
      9          1           0        2.246712    0.642055    3.541536
     10          6           0        0.315161    1.508694    3.464090
     11          1           0        0.685151    2.338187    4.080055
     12          8           0       -0.889856    1.606820    3.084041
 ---------------------------------------------------------------------

 Alpha  occ. eigenvalues --  -19.18386 -10.29220 -10.26277 -10.22882 -10.20946
 Alpha  occ. eigenvalues --  -10.20140  -1.08516  -0.86366  -0.79627  -0.70559
 Alpha  occ. eigenvalues --   -0.64591  -0.56431  -0.54530  -0.50994  -0.49752
 Alpha  occ. eigenvalues --   -0.48173  -0.43338  -0.41925  -0.41122  -0.36490
 Alpha  occ. eigenvalues --   -0.32858  -0.25323
 Alpha virt. eigenvalues --   -0.10689  -0.04157   0.00823   0.01285   0.03252
 Alpha virt. eigenvalues --    0.04347   0.05896   0.08543   0.09796   0.11332
 Alpha virt. eigenvalues --    0.14036   0.15683   0.16497   0.17141   0.19389

 Mulliken charges:
               1
     1  H    0.160959
     2  C   -0.194152
     3  C   -0.026605
     4  C   -0.059715
     5  H    0.163672
     6  C   -0.269198
     7  H    0.134157
     8  H    0.091912
     9  H    0.105658
    10  C    0.141710
    11  H    0.086700
    12  O   -0.335098
 Sum of Mulliken charges =  -0.00000

 Dipole moment (field-independent basis, Debye):
    X=              1.5554    Y=             -0.9715    Z=             -2.0907  Tot=              2.7810
 Quadrupole moment (field-independent basis, Debye-Ang):
   XX=            -33.0160   YY=            -39.5874   ZZ=            -43.6654
   XY=              2.8966   XZ=              5.1913   YZ=             -2.4100

 Normal termination of Gaussian 16 at Fri Mar 18 11:16:36 2022.
