 Gaussian 16, Revision A.03,
 Gaussian 16:  ES64L-G16RevA.03 25-Dec-2016

 ----------------------------------------------------------------------
 # Opt=(TS, CalcFC, noeigentest, Z-matrix, MaxStep=10) Field=read NoSym
 m B3LYP/Def2TZVP freq=noraman pop=none
 ----------------------------------------------------------------------

 -----------------
 ts_zmat_initalOpt
 -----------------
 Symbolic Z-matrix:
 Charge =  0 Multiplicity = 1

 SCF Done:  E(RB3LYP) =  -195.276941342     A.U. after   16 cycles
 SCF Done:  E(RB3LYP) =  -195.276947831     A.U. after    9 cycles
 Optimization completed.
    -- Stationary point found.
 Normal termination of Gaussian 16 at Fri Jun 10 11:04:45 2022.

 --------------------------------------------------------------------
 #N Geom=AllCheck Guess=TCheck SCRF=Check GenChk RB3LYP/def2TZVP Freq
 --------------------------------------------------------------------

 Structure from the checkpoint file:  "checkpoint.chk"
 -----------------
 ts_zmat_initalOpt
 -----------------
 Charge =  0 Multiplicity = 1

                          Input orientation:
 ---------------------------------------------------------------------
 Center     Atomic      Atomic             Coordinates (Angstroms)
 Number     Number       Type             X           Y           Z
 ---------------------------------------------------------------------
      1          6           0        0.000000    0.000000    0.000000
      2          6           0        0.000000    0.000000    1.388288
      3          6           0        1.254951    0.000000   -0.832554
      4          1           0       -0.950548    0.028230   -0.525637
      5          6           0        2.042674   -1.083152   -0.255993
      6          1           0        1.759979    0.968968   -0.820411
      7          1           0        0.970723   -0.213988   -1.868788
      8          6           0        0.931245   -0.548236    2.231974
      9          1           0       -0.835370    0.538026    1.843615
     10          1           0        2.967253   -0.916413    0.274396
     11          1           0        1.684691   -2.098363   -0.348250
     12          1           0        1.445766   -1.458148    1.973102
     13          1           0        1.050228   -0.185119    3.247136
 ---------------------------------------------------------------------

 SCF Done:  E(RB3LYP) =  -195.276947831     A.U. after    1 cycles

 Isotropic polarizability for W=    0.000000       74.67 Bohr**3.
 End of Minotr F.D. properties file   721 does not exist.

 ******    1 imaginary frequencies (negative Signs) ******

                      1                      2                      3
                      A                      A                      A
 Frequencies --   -421.3483               220.8807               258.9921
 Red. masses --      1.9580                 2.2018                 2.3100
 Frc consts  --      0.2048                 0.0633                 0.0913
 IR Inten    --      0.0664                 0.5439                 1.3735

                      4                      5                      6
                      A                      A                      A
 Frequencies --    373.7208               545.8267               584.3090
 Red. masses --      2.2762                 1.2812                 1.3121
 Frc consts  --      0.1873                 0.2249                 0.2639
 IR Inten    --      6.5713                 7.2420                 4.1041

                      7                      8                      9
                      A                      A                      A
 Frequencies --    650.6650               707.4727               761.4201
 Red. masses --      1.4413                 1.3953                 1.2506
 Frc consts  --      0.3595                 0.4115                 0.4272
 IR Inten    --     19.1522                32.2926                49.7681

                     10                     11                     12
                      A                      A                      A
 Frequencies --    776.1368               827.5774               898.4147
 Red. masses --      1.3706                 1.4983                 1.4712
 Frc consts  --      0.4865                 0.6046                 0.6996
 IR Inten    --     28.2030                 7.7118                 3.8306

                     13                     14                     15
                      A                      A                      A
 Frequencies --    929.9245              1030.4738              1063.3830
 Red. masses --      1.8770                 1.5597                 1.6660
 Frc consts  --      0.9563                 0.9758                 1.1100
 IR Inten    --      2.7969                 0.0733                13.6843

                     16                     17                     18
                      A                      A                      A
 Frequencies --   1129.2250              1153.9227              1220.7821
 Red. masses --      2.2314                 1.9160                 1.2455
 Frc consts  --      1.6765                 1.5032                 1.0936
 IR Inten    --     15.8401                 0.0831                 5.1324

                     19                     20                     21
                      A                      A                      A
 Frequencies --   1266.3841              1306.3398              1400.5928
 Red. masses --      1.2629                 1.3033                 1.3594
 Frc consts  --      1.1933                 1.3104                 1.5712
 IR Inten    --     16.9983                 6.4434                 3.2929

                     22                     23                     24
                      A                      A                      A
 Frequencies --   1423.9928              1481.8013              1497.4662
 Red. masses --      1.1095                 1.2537                 1.4620
 Frc consts  --      1.3255                 1.6219                 1.9316
 IR Inten    --     11.2799                 6.4780                 2.0165

                     25                     26                     27
                      A                      A                      A
 Frequencies --   1591.7891              3011.0640              3056.4139
 Red. masses --      4.0755                 1.0581                 1.0999
 Frc consts  --      6.0842                 5.6522                 6.0539
 IR Inten    --     18.2110                18.9110                12.4292

                     28                     29                     30
                      A                      A                      A
 Frequencies --   3060.5720              3135.3484              3139.5880
 Red. masses --      1.0846                 1.0818                 1.0701
 Frc consts  --      5.9858                 6.2659                 6.2149
 IR Inten    --     17.2746                23.0969                 4.2214

                     31                     32                     33
                      A                      A                      A
 Frequencies --   3165.8292              3256.9871              3269.1211
 Red. masses --      1.0514                 1.1047                 1.1186
 Frc consts  --      6.2087                 6.9045                 7.0434
 IR Inten    --      4.1176                10.1372                 2.8312

 - Thermochemistry -
 -------------------
 Temperature   298.150 Kelvin.  Pressure   1.00000 Atm.
 Atom     1 has atomic number  6 and mass  12.00000

 Molecular mass:    68.06260 amu.
 Principal axes and moments of inertia in atomic units:
                           1         2         3
     Eigenvalues --   212.21014 402.29144 565.59921
           X           -0.36945   0.79198   0.48609
           Y            0.06244  -0.50076   0.86333
           Z            0.92715   0.34931   0.13556
 This molecule is an asymmetric top.
 Rotational symmetry number  1.
 Rotational temperatures (Kelvin)      0.40815     0.21530     0.15314
 Rotational constants (GHZ):           8.50450     4.48615     3.19085
    1 imaginary frequencies ignored.
 Zero-point vibrational energy     288278.6 (Joules/Mol)
                                   68.90024 (Kcal/Mol)
 Warning -- explicit consideration of   5 degrees of freedom as
           vibrations may cause significant error
 Vibrational temperatures:    317.80   372.63   537.70   785.32   840.69
          (Kelvin)            936.16  1017.90  1095.51  1116.69  1190.70
                             1292.62  1337.95  1482.62  1529.97  1624.70
                             1660.24  1756.43  1822.04  1879.53  2015.14
                             2048.81  2131.98  2154.52  2290.23  4332.25
                             4397.50  4403.48  4511.07  4517.17  4554.92
                             4686.08  4703.54

 Zero-point correction=                           0.109800 (Hartree/Particle)
 Thermal correction to Energy=                    0.115096
 Thermal correction to Enthalpy=                  0.116040
 Thermal correction to Gibbs Free Energy=         0.081983
 Sum of electronic and zero-point Energies=           -195.167148
 Sum of electronic and thermal Energies=              -195.161852
 Sum of electronic and thermal Enthalpies=            -195.160908
 Sum of electronic and thermal Free Energies=         -195.194965

                     E (Thermal)             CV                S
                      KCal/Mol        Cal/Mol-Kelvin    Cal/Mol-Kelvin
 Total                   72.224             20.043             71.679
 Electronic               0.000              0.000              0.000
 Translational            0.889              2.981             38.571
 Rotational               0.889              2.981             25.382
 Vibrational             70.446             14.081              7.725
 Vibration     1          0.648              1.809              1.952
 Vibration     2          0.668              1.748              1.669
 Vibration     3          0.745              1.526              1.064
 Vibration     4          0.901              1.149              0.553
 Vibration     5          0.941              1.065              0.477

 Optimization completed.
    -- Stationary point found.
 Normal termination of Gaussian 16 at Fri Jun 10 11:06:58 2022.
