 Gaussian 16, Revision A.03,
 Gaussian 16:  ES64L-G16RevA.03 25-Dec-2016

 ----------------------------------------------------------------------
 # Opt=(TS, CalcFC, noeigentest, Z-matrix, MaxStep=10) geom=allcheckpoi
 nt guess=read Field=read NoSymm B3LYP/Def2TZVP freq=noraman pop=none
 ----------------------------------------------------------------------

 Structure from the checkpoint file:  "checkpoint.chk"
 -----------------
 ts_zmat_initalOpt
 -----------------
 Charge =  0 Multiplicity = 1

 SCF Done:  E(RB3LYP) =  -309.684029850     A.U. after   11 cycles
 SCF Done:  E(RB3LYP) =  -309.684040427     A.U. after   10 cycles
 Optimization completed.
    -- Stationary point found.
 Normal termination of Gaussian 16 at Fri Jun 10 04:12:05 2022.

 --------------------------------------------------------------------
 #N Geom=AllCheck Guess=TCheck SCRF=Check GenChk RB3LYP/def2TZVP Freq
 --------------------------------------------------------------------

 Structure from the checkpoint file:  "checkpoint.chk"
 -----------------
 ts_zmat_initalOpt
 -----------------
 Charge =  0 Multiplicity = 1

                          Input orientation:
 ---------------------------------------------------------------------
 Center     Atomic      Atomic             Coordinates (Angstroms)
 Number     Number       Type             X           Y           Z
 ---------------------------------------------------------------------
      1          6           0        0.000000    0.000000    0.000000
      2          6           0        0.000000    0.000000    1.404519
      3          6           0        1.215182    0.000000   -0.716509
      4          6           0       -1.037615   -0.080587   -0.979643
      5          1           0       -0.914925    0.091946    1.977134
      6          6           0        1.206491   -0.235706    2.033140
      7          6           0        2.418861   -0.343801   -0.079618
      8          6           0        0.900425    0.466491   -2.030341
      9          1           0       -1.037449   -0.931845   -1.642310
     10          1           0       -2.017336    0.374988   -0.827629
     11          6           0        2.394628   -0.446552    1.297082
     12          1           0        1.246722   -0.302200    3.112680
     13          1           0        3.348923   -0.440071   -0.626562
     14          1           0        0.455416    1.444874   -2.122536
     15          1           0        1.449432    0.133564   -2.912532
     16          1           0        3.309204   -0.654242    1.837325
 ---------------------------------------------------------------------

 SCF Done:  E(RB3LYP) =  -309.684040427     A.U. after    1 cycles

 Isotropic polarizability for W=    0.000000       98.81 Bohr**3.
 End of Minotr F.D. properties file   721 does not exist.

 ******    1 imaginary frequencies (negative Signs) ******

                      1                      2                      3
                      A                      A                      A
 Frequencies --   -623.7241               223.9667               224.3027
 Red. masses --      2.1764                 2.8531                 3.2251
 Frc consts  --      0.4988                 0.0843                 0.0956
 IR Inten    --     18.6246                 1.1203                 5.1890

                      4                      5                      6
                      A                      A                      A
 Frequencies --    397.0690               431.7954               519.9091
 Red. masses --      2.7695                 2.9832                 3.0598
 Frc consts  --      0.2573                 0.3277                 0.4873
 IR Inten    --      6.8868                 5.2053                 0.9229

                      7                      8                      9
                      A                      A                      A
 Frequencies --    577.2257               590.4680               655.1111
 Red. masses --      5.2621                 3.9073                 1.2810
 Frc consts  --      1.0330                 0.8026                 0.3239
 IR Inten    --      0.5136                 5.1415                14.8903

                     10                     11                     12
                      A                      A                      A
 Frequencies --    664.5957               747.5349               780.1447
 Red. masses --      1.1044                 3.1478                 1.2385
 Frc consts  --      0.2874                 1.0364                 0.4441
 IR Inten    --      2.2751                 5.3740                56.5387

                     13                     14                     15
                      A                      A                      A
 Frequencies --    814.5521               863.9453               869.3838
 Red. masses --      3.7079                 1.3097                 1.4877
 Frc consts  --      1.4495                 0.5759                 0.6625
 IR Inten    --      1.8655                17.1135                18.5255

                     16                     17                     18
                      A                      A                      A
 Frequencies --    882.6586               890.6804               965.5797
 Red. masses --      3.6471                 1.5689                 1.3429
 Frc consts  --      1.6741                 0.7333                 0.7377
 IR Inten    --      0.9587                41.6182                 4.6759

                     19                     20                     21
                      A                      A                      A
 Frequencies --   1013.1939              1014.8693              1019.1851
 Red. masses --      1.4538                 1.5292                 1.7986
 Frc consts  --      0.8793                 0.9280                 1.1007
 IR Inten    --      2.3505                 0.0023                 0.1893

                     22                     23                     24
                      A                      A                      A
 Frequencies --   1045.8684              1148.7235              1189.7792
 Red. masses --      1.5332                 1.5157                 1.1124
 Frc consts  --      0.9881                 1.1784                 0.9277
 IR Inten    --      9.1913                 1.4660                 0.0322

                     25                     26                     27
                      A                      A                      A
 Frequencies --   1236.2502              1323.2044              1328.7299
 Red. masses --      2.3569                 1.6676                 2.7866
 Frc consts  --      2.1223                 1.7202                 2.8987
 IR Inten    --      8.1485                 1.4112                 0.6232

                     28                     29                     30
                      A                      A                      A
 Frequencies --   1372.3626              1471.7209              1489.9395
 Red. masses --      4.1118                 1.3659                 1.5517
 Frc consts  --      4.5627                 1.7431                 2.0295
 IR Inten    --      1.4142                10.0503                 6.5616

                     31                     32                     33
                      A                      A                      A
 Frequencies --   1502.6992              1524.2912              1586.3567
 Red. masses --      2.0061                 2.1253                 5.1227
 Frc consts  --      2.6690                 2.9094                 7.5954
 IR Inten    --      0.4914                 5.1151                12.7545

                     34                     35                     36
                      A                      A                      A
 Frequencies --   1628.8143              3070.5722              3070.6551
 Red. masses --      5.5064                 1.0678                 1.0660
 Frc consts  --      8.6072                 5.9318                 5.9222
 IR Inten    --      1.2517                62.5436                56.4865

                     37                     38                     39
                      A                      A                      A
 Frequencies --   3172.5497              3174.9443              3191.5221
 Red. masses --      1.0882                 1.0889                 1.0926
 Frc consts  --      6.4534                 6.4674                 6.5571
 IR Inten    --     12.3120                 0.2250                 5.5680

                     40                     41                     42
                      A                      A                      A
 Frequencies --   3202.5074              3214.4886              3216.7800
 Red. masses --      1.0962                 1.0983                 1.0994
 Frc consts  --      6.6240                 6.6867                 6.7024
 IR Inten    --      0.0377                13.0962                 0.0540

 - Thermochemistry -
 -------------------
 Temperature   298.150 Kelvin.  Pressure   1.00000 Atm.
 Atom     1 has atomic number  6 and mass  12.00000

 Molecular mass:   104.06260 amu.
 Principal axes and moments of inertia in atomic units:
                           1         2         3
     Eigenvalues --   471.45683 812.581581241.40016
           X            0.50261   0.86090   0.07888
           Y           -0.14363  -0.00682   0.98961
           Z            0.85250  -0.50872   0.12022
 This molecule is an asymmetric top.
 Rotational symmetry number  1.
 Warning -- assumption of classical behavior for rotation
           may cause significant error
 Rotational temperatures (Kelvin)      0.18372     0.10659     0.06977
 Rotational constants (GHZ):           3.82801     2.22100     1.45379
    1 imaginary frequencies ignored.
 Zero-point vibrational energy     342783.5 (Joules/Mol)
                                   81.92723 (Kcal/Mol)
 Warning -- explicit consideration of   7 degrees of freedom as
           vibrations may cause significant error
 Vibrational temperatures:    322.24   322.72   571.29   621.26   748.03
          (Kelvin)            830.50   849.55   942.56   956.21  1075.54
                             1122.45  1171.96  1243.02  1250.85  1269.95
                             1281.49  1389.25  1457.76  1460.17  1466.38
                             1504.77  1652.76  1711.83  1778.69  1903.80
                             1911.75  1974.52  2117.48  2143.69  2162.05
                             2193.11  2282.41  2343.50  4417.87  4417.99
                             4564.59  4568.04  4591.89  4607.69  4624.93
                             4628.23

 Zero-point correction=                           0.130559 (Hartree/Particle)
 Thermal correction to Energy=                    0.136613
 Thermal correction to Enthalpy=                  0.137557
 Thermal correction to Gibbs Free Energy=         0.100759
 Sum of electronic and zero-point Energies=           -309.553481
 Sum of electronic and thermal Energies=              -309.547427
 Sum of electronic and thermal Enthalpies=            -309.546483
 Sum of electronic and thermal Free Energies=         -309.583282

                     E (Thermal)             CV                S
                      KCal/Mol        Cal/Mol-Kelvin    Cal/Mol-Kelvin
 Total                   85.726             25.042             77.449
 Electronic               0.000              0.000              0.000
 Translational            0.889              2.981             39.837
 Rotational               0.889              2.981             27.655
 Vibrational             83.949             19.080              9.957
 Vibration     1          0.649              1.805              1.927
 Vibration     2          0.649              1.804              1.924
 Vibration     3          0.764              1.476              0.973
 Vibration     4          0.793              1.401              0.853
 Vibration     5          0.875              1.206              0.610
 Vibration     6          0.934              1.081              0.491
 Vibration     7          0.948              1.052              0.466

 Optimization completed.
    -- Stationary point found.
 Normal termination of Gaussian 16 at Fri Jun 10 04:18:15 2022.
