 Gaussian 16, Revision A.03,
 Gaussian 16:  ES64L-G16RevA.03 25-Dec-2016

 ----------------------------------------------------------------------
 # Opt=(TS, CalcFC, noeigentest, Z-matrix, MaxStep=10) geom=allcheckpoi
 nt guess=read Field=read NoSymm B3LYP/Def2TZVP freq=noraman pop=none
 ----------------------------------------------------------------------

 Structure from the checkpoint file:  "checkpoint.chk"
 -----------------
 ts_zmat_initalOpt
 -----------------
 Charge =  0 Multiplicity = 1

 SCF Done:  E(RB3LYP) =  -312.081214933     A.U. after   10 cycles
 SCF Done:  E(RB3LYP) =  -312.081221334     A.U. after    9 cycles
 Optimization completed.
    -- Stationary point found.
 Normal termination of Gaussian 16 at Fri Jun 10 23:27:54 2022.

 --------------------------------------------------------------------
 #N Geom=AllCheck Guess=TCheck SCRF=Check GenChk RB3LYP/def2TZVP Freq
 --------------------------------------------------------------------

 Structure from the checkpoint file:  "checkpoint.chk"
 -----------------
 ts_zmat_initalOpt
 -----------------
 Charge =  0 Multiplicity = 1

                          Input orientation:
 ---------------------------------------------------------------------
 Center     Atomic      Atomic             Coordinates (Angstroms)
 Number     Number       Type             X           Y           Z
 ---------------------------------------------------------------------
      1          6           0        0.000000    0.000000    0.000000
      2          6           0        0.000000    0.000000    1.391597
      3          6           0        1.264177    0.000000   -0.851208
      4          1           0       -0.911973    0.319907   -0.491203
      5          6           0        1.398028   -1.484766   -1.234984
      6          6           0        1.067963   -0.373898    2.175273
      7          1           0       -0.970383    0.079700    1.875268
      8          1           0        1.143666    0.647810   -1.720130
      9          1           0        2.126140    0.375550   -0.298395
     10          6           0        0.172620   -2.101889   -0.571396
     11          1           0        2.081512   -0.305768    1.809350
     12          1           0        0.964302   -0.416352    3.251217
     13          1           0        1.378803   -1.643376   -2.314343
     14          1           0        2.323149   -1.932490   -0.869134
     15          6           0        0.208100   -2.802607    0.630666
     16          1           0       -0.694679   -2.251929   -1.204809
     17          6           0        1.227493   -2.728918    1.554724
     18          1           0       -0.732522   -3.237316    0.961741
     19          1           0        2.234041   -2.472224    1.260799
     20          1           0        1.136157   -3.236270    2.506076
 ---------------------------------------------------------------------

 SCF Done:  E(RB3LYP) =  -312.081221334     A.U. after    1 cycles

 Isotropic polarizability for W=    0.000000      102.29 Bohr**3.
 End of Minotr F.D. properties file   721 does not exist.

 ******    1 imaginary frequencies (negative Signs) ******

                      1                      2                      3
                      A                      A                      A
 Frequencies --   -427.9921                55.9242               259.1058
 Red. masses --      8.2014                 2.0930                 2.7583
 Frc consts  --      0.8851                 0.0039                 0.1091
 IR Inten    --      1.7914                 0.0040                 0.4030

                      4                      5                      6
                      A                      A                      A
 Frequencies --    260.3496               283.5510               302.6975
 Red. masses --      3.8797                 2.9593                 3.3857
 Frc consts  --      0.1549                 0.1402                 0.1828
 IR Inten    --      0.6438                 0.4412                 0.2146

                      7                      8                      9
                      A                      A                      A
 Frequencies --    369.9849               423.0608               530.6464
 Red. masses --      2.3110                 2.2610                 2.2787
 Frc consts  --      0.1864                 0.2384                 0.3780
 IR Inten    --      1.9220                 1.8030                 2.4777

                     10                     11                     12
                      A                      A                      A
 Frequencies --    573.4388               658.1921               684.4667
 Red. masses --      2.0347                 2.6328                 1.3446
 Frc consts  --      0.3942                 0.6720                 0.3711
 IR Inten    --      0.5438                 3.8561                 0.1517

                     13                     14                     15
                      A                      A                      A
 Frequencies --    717.1075               761.7868               785.5195
 Red. masses --      1.3252                 1.0975                 1.3294
 Frc consts  --      0.4015                 0.3753                 0.4833
 IR Inten    --     23.7832                 6.5096                 7.0233

                     16                     17                     18
                      A                      A                      A
 Frequencies --    861.7760               899.6010               913.8673
 Red. masses --      1.4926                 1.1980                 2.2913
 Frc consts  --      0.6531                 0.5712                 1.1275
 IR Inten    --     12.1405                 2.3311                 2.0081

                     19                     20                     21
                      A                      A                      A
 Frequencies --    942.3100               954.7493               991.3167
 Red. masses --      1.5398                 1.4626                 1.4983
 Frc consts  --      0.8056                 0.7855                 0.8675
 IR Inten    --      0.4336                 8.9546                 5.9494

                     22                     23                     24
                      A                      A                      A
 Frequencies --    993.4440              1009.9607              1019.9969
 Red. masses --      1.5808                 1.6512                 1.2814
 Frc consts  --      0.9192                 0.9923                 0.7855
 IR Inten    --      0.8255                 1.2068                20.7585

                     25                     26                     27
                      A                      A                      A
 Frequencies --   1040.4392              1087.6136              1146.8420
 Red. masses --      1.4342                 1.9404                 1.2902
 Frc consts  --      0.9147                 1.3523                 0.9998
 IR Inten    --      0.4024                 5.4053                 0.3130

                     28                     29                     30
                      A                      A                      A
 Frequencies --   1180.6094              1221.2924              1264.5633
 Red. masses --      1.6009                 1.5158                 1.1342
 Frc consts  --      1.3147                 1.3321                 1.0686
 IR Inten    --      0.5413                 0.3793                 0.0660

                     31                     32                     33
                      A                      A                      A
 Frequencies --   1287.9986              1298.3219              1299.4846
 Red. masses --      1.4729                 1.4263                 1.3376
 Frc consts  --      1.4397                 1.4165                 1.3308
 IR Inten    --      0.2290                 1.0309                 1.1653

                     34                     35                     36
                      A                      A                      A
 Frequencies --   1326.6672              1428.5277              1430.4449
 Red. masses --      1.4022                 1.3391                 1.3338
 Frc consts  --      1.4541                 1.6100                 1.6080
 IR Inten    --      3.0377                 1.5388                 2.3682

                     37                     38                     39
                      A                      A                      A
 Frequencies --   1488.1686              1495.3596              1505.6874
 Red. masses --      1.1779                 2.3062                 1.5221
 Frc consts  --      1.5370                 3.0384                 2.0332
 IR Inten    --      2.9253                 3.8239                 0.1889

                     40                     41                     42
                      A                      A                      A
 Frequencies --   1510.4501              1559.3651              1610.8709
 Red. masses --      1.1261                 1.8948                 3.7614
 Frc consts  --      1.5137                 2.7147                 5.7508
 IR Inten    --     16.1274                 2.4205                 5.5380

                     43                     44                     45
                      A                      A                      A
 Frequencies --   3048.1128              3057.5670              3077.0196
 Red. masses --      1.0587                 1.0601                 1.1054
 Frc consts  --      5.7954                 5.8392                 6.1663
 IR Inten    --     31.1614                41.1636                 0.9925

                     46                     47                     48
                      A                      A                      A
 Frequencies --   3098.4337              3106.4990              3116.6273
 Red. masses --      1.1052                 1.0850                 1.0854
 Frc consts  --      6.2514                 6.1693                 6.2114
 IR Inten    --     17.5167                21.6482                24.0236

                     49                     50                     51
                      A                      A                      A
 Frequencies --   3150.5667              3156.5489              3157.8841
 Red. masses --      1.0836                 1.0664                 1.0788
 Frc consts  --      6.3371                 6.2601                 6.3383
 IR Inten    --     10.2006                10.8664                40.7101

                     52                     53                     54
                      A                      A                      A
 Frequencies --   3163.3409              3234.0349              3245.6837
 Red. masses --      1.0688                 1.1160                 1.1133
 Frc consts  --      6.3014                 6.8773                 6.9102
 IR Inten    --      6.6245                 1.4871                17.6727

 - Thermochemistry -
 -------------------
 Temperature   298.150 Kelvin.  Pressure   1.00000 Atm.
 Atom     1 has atomic number  6 and mass  12.00000

 Molecular mass:   108.09390 amu.
 Principal axes and moments of inertia in atomic units:
                           1         2         3
     Eigenvalues --   723.99896 781.931961140.50970
           X           -0.04928  -0.07394   0.99604
           Y           -0.30757   0.94992   0.05530
           Z            0.95025   0.30362   0.06955
 This molecule is an asymmetric top.
 Rotational symmetry number  1.
 Warning -- assumption of classical behavior for rotation
           may cause significant error
 Rotational temperatures (Kelvin)      0.11963     0.11077     0.07594
 Rotational constants (GHZ):           2.49274     2.30805     1.58240
    1 imaginary frequencies ignored.
 Zero-point vibrational energy     460848.7 (Joules/Mol)
                                  110.14547 (Kcal/Mol)
 Warning -- explicit consideration of   9 degrees of freedom as
           vibrations may cause significant error
 Vibrational temperatures:     80.46   372.80   374.58   407.97   435.51
          (Kelvin)            532.33   608.69   763.48   825.05   946.99
                              984.79  1031.76  1096.04  1130.19  1239.90
                             1294.33  1314.85  1355.77  1373.67  1426.28
                             1429.34  1453.11  1467.55  1496.96  1564.83
                             1650.05  1698.63  1757.17  1819.42  1853.14
                             1868.00  1869.67  1908.78  2055.33  2058.09
                             2141.14  2151.49  2166.35  2173.20  2243.58
                             2317.68  4385.55  4399.16  4427.14  4457.95
                             4469.56  4484.13  4532.96  4541.57  4543.49
                             4551.34  4653.05  4669.81

 Zero-point correction=                           0.175528 (Hartree/Particle)
 Thermal correction to Energy=                    0.183132
 Thermal correction to Enthalpy=                  0.184076
 Thermal correction to Gibbs Free Energy=         0.143799
 Sum of electronic and zero-point Energies=           -311.905693
 Sum of electronic and thermal Energies=              -311.898089
 Sum of electronic and thermal Enthalpies=            -311.897145
 Sum of electronic and thermal Free Energies=         -311.937422

                     E (Thermal)             CV                S
                      KCal/Mol        Cal/Mol-Kelvin    Cal/Mol-Kelvin
 Total                  114.917             30.523             84.770
 Electronic               0.000              0.000              0.000
 Translational            0.889              2.981             39.950
 Rotational               0.889              2.981             27.959
 Vibrational            113.140             24.562             16.862
 Vibration     1          0.596              1.975              4.596
 Vibration     2          0.668              1.747              1.668
 Vibration     3          0.668              1.745              1.659
 Vibration     4          0.682              1.704              1.512
 Vibration     5          0.694              1.669              1.402
 Vibration     6          0.742              1.534              1.080
 Vibration     7          0.785              1.420              0.882
 Vibration     8          0.886              1.182              0.586
 Vibration     9          0.930              1.089              0.498

 Optimization completed.
    -- Stationary point found.
 Normal termination of Gaussian 16 at Fri Jun 10 23:37:08 2022.
