 Gaussian 16, Revision A.03,
 Gaussian 16:  ES64L-G16RevA.03 25-Dec-2016

 --------------------------------------------------------------------
 # Opt=(TS, CalcFC, noeigentest) B3LYP/Def2TZVP freq=noraman pop=none
 --------------------------------------------------------------------

 ------------
 ts_initalOpt
 ------------
 Symbolic Z-matrix:
 Charge =  0 Multiplicity = 1

 SCF Done:  E(RB3LYP) =  -210.175709852     A.U. after   13 cycles
 Optimization completed.
    -- Stationary point found.
 Normal termination of Gaussian 16 at Fri Jun 10 21:51:43 2022.

 --------------------------------------------------------------------
 #N Geom=AllCheck Guess=TCheck SCRF=Check GenChk RB3LYP/def2TZVP Freq
 --------------------------------------------------------------------

 Structure from the checkpoint file:  "checkpoint.chk"
 ------------
 ts_initalOpt
 ------------
 Charge =  0 Multiplicity = 1

                         Standard orientation:
 ---------------------------------------------------------------------
 Center     Atomic      Atomic             Coordinates (Angstroms)
 Number     Number       Type             X           Y           Z
 ---------------------------------------------------------------------
      1          6           0        0.556135    1.064926    0.004904
      2          6           0       -0.822083    0.872407   -0.004122
      3          6           0       -1.054914   -0.503437   -0.015857
      4          7           0        0.090759   -1.214346   -0.080367
      5          6           0        1.139062   -0.208206   -0.021020
      6          1           0        2.147087   -0.499251   -0.274042
      7          1           0        1.084881    2.004755    0.023577
      8          1           0       -1.577130    1.643546    0.024648
      9          1           0       -2.001850   -1.017695    0.052466
     10          1           0        0.802505   -0.985074    0.952486
 ---------------------------------------------------------------------

 SCF Done:  E(RB3LYP) =  -210.175709852     A.U. after    1 cycles

 Isotropic polarizability for W=    0.000000       50.56 Bohr**3.
 End of Minotr F.D. properties file   721 does not exist.

 ******    1 imaginary frequencies (negative Signs) ******

                      1                      2                      3
                      A                      A                      A
 Frequencies --  -1496.1194               588.1546               640.4438
 Red. masses --      1.2114                 2.2284                 3.8308
 Frc consts  --      1.5977                 0.4542                 0.9258
 IR Inten    --    109.6634                 2.7781                 3.4909

                      4                      5                      6
                      A                      A                      A
 Frequencies --    747.9517               847.6759               863.5684
 Red. masses --      1.1436                 1.4474                 1.5429
 Frc consts  --      0.3769                 0.6128                 0.6779
 IR Inten    --     89.5570                 7.8116                17.2476

                      7                      8                      9
                      A                      A                      A
 Frequencies --    881.6969               889.4262               937.1803
 Red. masses --      3.0907                 4.1912                 1.4680
 Frc consts  --      1.4156                 1.9535                 0.7597
 IR Inten    --      6.3518                 3.5124                 1.5544

                     10                     11                     12
                      A                      A                      A
 Frequencies --    955.7986              1064.4843              1089.2379
 Red. masses --      2.8770                 1.3734                 1.2547
 Frc consts  --      1.5485                 0.9169                 0.8771
 IR Inten    --     37.9415                 9.6728                 1.6329

                     13                     14                     15
                      A                      A                      A
 Frequencies --   1135.6267              1173.9243              1254.4157
 Red. masses --      2.2547                 1.1367                 1.7165
 Frc consts  --      1.7132                 0.9230                 1.5914
 IR Inten    --      3.3895                24.3871                 1.3848

                     16                     17                     18
                      A                      A                      A
 Frequencies --   1312.9008              1429.4941              1482.2424
 Red. masses --      1.9034                 2.8386                 3.1997
 Frc consts  --      1.9330                 3.4175                 4.1419
 IR Inten    --      2.8228                 6.5971                 3.4950

                     19                     20                     21
                      A                      A                      A
 Frequencies --   1509.4758              2183.2285              3213.6914
 Red. masses --      3.5110                 1.0725                 1.0880
 Frc consts  --      4.7134                 3.0119                 6.6205
 IR Inten    --      1.2933                14.3463                 1.9216

                     22                     23                     24
                      A                      A                      A
 Frequencies --   3225.6567              3230.2626              3245.4140
 Red. masses --      1.0916                 1.0966                 1.1047
 Frc consts  --      6.6919                 6.7418                 6.8552
 IR Inten    --      2.9230                 6.2906                 1.9808

 - Thermochemistry -
 -------------------
 Temperature   298.150 Kelvin.  Pressure   1.00000 Atm.
 Atom     1 has atomic number  6 and mass  12.00000

 Molecular mass:    67.04220 amu.
 Principal axes and moments of inertia in atomic units:
                           1         2         3
     Eigenvalues --   196.16931 203.86770 392.36622
           X            0.10805   0.99415   0.00124
           Y            0.99406  -0.10802  -0.01363
           Z            0.01342  -0.00271   0.99991
 This molecule is an asymmetric top.
 Rotational symmetry number  1.
 Rotational temperatures (Kelvin)      0.44153     0.42485     0.22075
 Rotational constants (GHZ):           9.19992     8.85251     4.59963
    1 imaginary frequencies ignored.
 Zero-point vibrational energy     202778.7 (Joules/Mol)
                                   48.46527 (Kcal/Mol)
 Warning -- explicit consideration of   1 degrees of freedom as
           vibrations may cause significant error
 Vibrational temperatures:    846.22   921.46  1076.14  1219.62  1242.48
          (Kelvin)           1268.57  1279.69  1348.39  1375.18  1531.56
                             1567.17  1633.91  1689.02  1804.82  1888.97
                             2056.72  2132.62  2171.80  3141.18  4623.79
                             4641.00  4647.63  4669.43

 Zero-point correction=                           0.077234 (Hartree/Particle)
 Thermal correction to Energy=                    0.080935
 Thermal correction to Enthalpy=                  0.081880
 Thermal correction to Gibbs Free Energy=         0.050949
 Sum of electronic and zero-point Energies=           -210.098476
 Sum of electronic and thermal Energies=              -210.094774
 Sum of electronic and thermal Enthalpies=            -210.093830
 Sum of electronic and thermal Free Energies=         -210.124761

                     E (Thermal)             CV                S
                      KCal/Mol        Cal/Mol-Kelvin    Cal/Mol-Kelvin
 Total                   50.788             13.395             65.099
 Electronic               0.000              0.000              0.000
 Translational            0.889              2.981             38.526
 Rotational               0.889              2.981             24.266
 Vibrational             49.010              7.434              2.307
 Vibration     1          0.945              1.057              0.470

 Optimization completed.
    -- Stationary point found.
 Normal termination of Gaussian 16 at Fri Jun 10 21:53:13 2022.
