 Gaussian 16, Revision A.03,
 Gaussian 16:  ES64L-G16RevA.03 25-Dec-2016

 ----------------------------------------------------------------------
 # Opt=(Z-matrix, MaxStep=10) B3LYP/Def2TZVP geom=allcheckpoint guess=r
 ead Field=read NoSymm freq=noraman pop=none
 ----------------------------------------------------------------------

 Structure from the checkpoint file:  "checkpoint.chk"
 ------------------
 int_zmat_initalOpt
 ------------------
 Charge =  0 Multiplicity = 1

 SCF Done:  E(RB3LYP) =  -195.370217772     A.U. after    9 cycles
 SCF Done:  E(RB3LYP) =  -195.370225044     A.U. after    8 cycles
 SCF Done:  E(RB3LYP) =  -195.370230727     A.U. after    9 cycles
 SCF Done:  E(RB3LYP) =  -195.370231731     A.U. after    8 cycles
 Optimization completed.
    -- Stationary point found.
 Normal termination of Gaussian 16 at Fri Jun 10 03:32:45 2022.

 --------------------------------------------------------------------
 #N Geom=AllCheck Guess=TCheck SCRF=Check GenChk RB3LYP/def2TZVP Freq
 --------------------------------------------------------------------

 Structure from the checkpoint file:  "checkpoint.chk"
 ------------------
 int_zmat_initalOpt
 ------------------
 Charge =  0 Multiplicity = 1

                          Input orientation:
 ---------------------------------------------------------------------
 Center     Atomic      Atomic             Coordinates (Angstroms)
 Number     Number       Type             X           Y           Z
 ---------------------------------------------------------------------
      1          6           0        0.000000    0.000000    0.000000
      2          6           0        0.000000    0.000000    1.517813
      3          6           0        1.296039    0.000000    0.759091
      4          1           0       -0.298529    0.919053   -0.487203
      5          1           0       -0.307207   -0.904615   -0.506574
      6          1           0        1.885809    0.907176    0.749890
      7          1           0        1.880910   -0.909587    0.771379
      8          6           0       -0.500937    1.180885    2.255534
      9          1           0       -0.288016   -0.945686    1.962610
     10          6           0        0.156093    2.309239    2.511294
     11          1           0       -1.525585    1.089917    2.608048
     12          1           0        1.187726    2.455543    2.212769
     13          1           0       -0.318871    3.121151    3.048349
 ---------------------------------------------------------------------

 SCF Done:  E(RB3LYP) =  -195.370231731     A.U. after    1 cycles

 Isotropic polarizability for W=    0.000000       58.42 Bohr**3.
 End of Minotr F.D. properties file   721 does not exist.

                      1                      2                      3
                      A                      A                      A
 Frequencies --     83.5790               270.5369               305.0004
 Red. masses --      2.0014                 2.6583                 1.8194
 Frc consts  --      0.0082                 0.1146                 0.0997
 IR Inten    --      0.5459                 0.5378                 1.0344

                      4                      5                      6
                      A                      A                      A
 Frequencies --    535.9274               669.6077               760.8418
 Red. masses --      2.0817                 1.5963                 1.6947
 Frc consts  --      0.3523                 0.4217                 0.5780
 IR Inten    --      0.6354                13.2319                 1.7846

                      7                      8                      9
                      A                      A                      A
 Frequencies --    812.6358               840.3094               901.3109
 Red. masses --      1.2983                 1.5102                 1.5861
 Frc consts  --      0.5051                 0.6283                 0.7592
 IR Inten    --      0.2840                 8.7343                38.7033

                     10                     11                     12
                      A                      A                      A
 Frequencies --    913.4972               945.6723              1030.4612
 Red. masses --      1.9191                 2.4326                 1.1254
 Frc consts  --      0.9436                 1.2817                 0.7041
 IR Inten    --     13.4389                14.9814                17.0372

                     13                     14                     15
                      A                      A                      A
 Frequencies --   1054.7841              1079.6944              1096.1802
 Red. masses --      1.1987                 1.3205                 1.5706
 Frc consts  --      0.7857                 0.9070                 1.1120
 IR Inten    --      6.0147                 4.2825                 8.8399

                     16                     17                     18
                      A                      A                      A
 Frequencies --   1123.2358              1138.3487              1201.3956
 Red. masses --      1.4901                 1.1963                 1.3905
 Frc consts  --      1.1077                 0.9134                 1.1825
 IR Inten    --      2.3354                 0.9013                 3.0998

                     19                     20                     21
                      A                      A                      A
 Frequencies --   1227.8882              1336.2656              1408.3852
 Red. masses --      1.9089                 1.2602                 1.4801
 Frc consts  --      1.6957                 1.3258                 1.7297
 IR Inten    --      2.3221                 1.0897                 0.0576

                     22                     23                     24
                      A                      A                      A
 Frequencies --   1454.5607              1473.7827              1508.4953
 Red. masses --      1.3023                 1.0952                 1.3291
 Frc consts  --      1.6235                 1.4015                 1.7820
 IR Inten    --      3.6303                 3.4205                 3.4302

                     25                     26                     27
                      A                      A                      A
 Frequencies --   1694.3828              3123.3367              3129.4304
 Red. masses --      4.4473                 1.0732                 1.0593
 Frc consts  --      7.5227                 6.1682                 6.1121
 IR Inten    --     38.6952                12.6361                13.2270

                     28                     29                     30
                      A                      A                      A
 Frequencies --   3132.0689              3135.4450              3149.1409
 Red. masses --      1.0607                 1.0602                 1.0890
 Frc consts  --      6.1306                 6.1411                 6.3630
 IR Inten    --     15.4282                14.8254                 1.8588

                     31                     32                     33
                      A                      A                      A
 Frequencies --   3204.7879              3207.7566              3222.5450
 Red. masses --      1.1159                 1.1173                 1.1163
 Frc consts  --      6.7527                 6.7737                 6.8303
 IR Inten    --     19.8857                 9.1287                11.1784

 - Thermochemistry -
 -------------------
 Temperature   298.150 Kelvin.  Pressure   1.00000 Atm.
 Atom     1 has atomic number  6 and mass  12.00000

 Molecular mass:    68.06260 amu.
 Principal axes and moments of inertia in atomic units:
                           1         2         3
     Eigenvalues --   156.31134 491.43787 539.16289
           X           -0.21076   0.94939   0.23290
           Y            0.69760   0.31297  -0.64452
           Z            0.68479  -0.02663   0.72825
 This molecule is an asymmetric top.
 Rotational symmetry number  1.
 Rotational temperatures (Kelvin)      0.55411     0.17625     0.16065
 Rotational constants (GHZ):          11.54581     3.67237     3.34730
 Zero-point vibrational energy     300091.0 (Joules/Mol)
                                   71.72346 (Kcal/Mol)
 Warning -- explicit consideration of   4 degrees of freedom as
           vibrations may cause significant error
 Vibrational temperatures:    120.25   389.24   438.83   771.08   963.42
          (Kelvin)           1094.68  1169.20  1209.02  1296.79  1314.32
                             1360.61  1482.60  1517.60  1553.44  1577.16
                             1616.09  1637.83  1728.54  1766.66  1922.59
                             2026.35  2092.79  2120.44  2170.39  2437.84
                             4493.78  4502.55  4506.35  4511.21  4530.91
                             4610.97  4615.25  4636.52

 Zero-point correction=                           0.114299 (Hartree/Particle)
 Thermal correction to Energy=                    0.119703
 Thermal correction to Enthalpy=                  0.120648
 Thermal correction to Gibbs Free Energy=         0.085929
 Sum of electronic and zero-point Energies=           -195.255933
 Sum of electronic and thermal Energies=              -195.250528
 Sum of electronic and thermal Enthalpies=            -195.249584
 Sum of electronic and thermal Free Energies=         -195.284303

                     E (Thermal)             CV                S
                      KCal/Mol        Cal/Mol-Kelvin    Cal/Mol-Kelvin
 Total                   75.115             19.390             73.071
 Electronic               0.000              0.000              0.000
 Translational            0.889              2.981             38.571
 Rotational               0.889              2.981             25.230
 Vibrational             73.338             13.429              9.270
 Vibration     1          0.600              1.960              3.805
 Vibration     2          0.674              1.727              1.593
 Vibration     3          0.696              1.664              1.389
 Vibration     4          0.891              1.171              0.574

 Optimization completed.
    -- Stationary point found.
 Normal termination of Gaussian 16 at Fri Jun 10 03:34:56 2022.
