 Gaussian 16, Revision A.03,
 Gaussian 16:  ES64L-G16RevA.03 25-Dec-2016

 --------------------------
 # sp B3LYP/Def2TZVP NoSymm
 --------------------------

 ----------------------------
 int_initalOpt_zmat_AlignedSp
 ----------------------------
 Symbolic Z-matrix:
 Charge =  0 Multiplicity = 1

                          Input orientation:
 ---------------------------------------------------------------------
 Center     Atomic      Atomic             Coordinates (Angstroms)
 Number     Number       Type             X           Y           Z
 ---------------------------------------------------------------------
      1          1           0        0.000000    0.000000    0.000000
      2          6           0        0.000000    0.000000    1.082165
      3          6           0        1.124260    0.000000    1.805026
      4          6           0       -1.309801   -0.032010    1.814859
      5          1           0        2.098198   -0.004977    1.331295
      6          6           0        1.037643    0.098183    3.252778
      7          8           0       -1.247498    0.697860    3.059748
      8          1           0       -2.115407    0.432611    1.248685
      9          1           0       -1.607483   -1.066123    2.050062
     10          1           0        1.906833   -0.021636    3.882146
     11          6           0       -0.126184    0.494612    3.789659
     12          1           0       -0.259904    0.765927    4.828915
 ---------------------------------------------------------------------

 SCF Done:  E(RB3LYP) =  -269.422510679     A.U. after   13 cycles

 Alpha  occ. eigenvalues --  -19.16116 -10.23274 -10.23078 -10.17926 -10.17312
 Alpha  occ. eigenvalues --  -10.16645  -1.07060  -0.81408  -0.77439  -0.66565
 Alpha  occ. eigenvalues --   -0.62635  -0.53389  -0.51176  -0.48548  -0.46309
 Alpha  occ. eigenvalues --   -0.43838  -0.40954  -0.37855  -0.36089  -0.33068
 Alpha  occ. eigenvalues --   -0.30118  -0.21129
 Alpha virt. eigenvalues --   -0.03376   0.04616   0.05587   0.07510   0.07893
 Alpha virt. eigenvalues --    0.09293   0.10034   0.10888   0.12582   0.16187
 Alpha virt. eigenvalues --    0.17805   0.19367   0.21561   0.22452   0.22634

 Mulliken charges:
               1
     1  H    0.112305
     2  C   -0.177885
     3  C   -0.088615
     4  C    0.036004
     5  H    0.112034
     6  C   -0.167981
     7  O   -0.270096
     8  H    0.108342
     9  H    0.076308
    10  H    0.112381
    11  C    0.026088
    12  H    0.121112
 Sum of Mulliken charges =  -0.00000

 Dipole moment (field-independent basis, Debye):
    X=              0.3177    Y=             -0.4626    Z=             -0.4499  Tot=              0.7192
 Quadrupole moment (field-independent basis, Debye-Ang):
   XX=            -34.3310   YY=            -38.8588   ZZ=            -34.3224
   XY=              0.8313   XZ=              2.7647   YZ=             -0.6937

 Normal termination of Gaussian 16 at Fri Jun 10 02:20:37 2022.
