 Gaussian 16, Revision A.03,
 Gaussian 16:  ES64L-G16RevA.03 25-Dec-2016

 ----------------------------------------------------------------------
 # Opt=(Z-matrix, MaxStep=10) B3LYP/Def2TZVP geom=allcheckpoint guess=r
 ead Field=read NoSymm freq=noraman pop=none
 ----------------------------------------------------------------------

 Structure from the checkpoint file:  "checkpoint.chk"
 ------------------
 int_zmat_initalOpt
 ------------------
 Charge =  0 Multiplicity = 1

 SCF Done:  E(RB3LYP) =  -439.166727215     A.U. after   11 cycles
 SCF Done:  E(RB3LYP) =  -439.165635631     A.U. after   14 cycles
 SCF Done:  E(RB3LYP) =  -439.165210601     A.U. after   14 cycles
 SCF Done:  E(RB3LYP) =  -439.166739726     A.U. after   12 cycles
 SCF Done:  E(RB3LYP) =  -439.165858657     A.U. after   14 cycles
 SCF Done:  E(RB3LYP) =  -439.166523937     A.U. after   13 cycles
 SCF Done:  E(RB3LYP) =  -439.166739746     A.U. after    8 cycles
 SCF Done:  E(RB3LYP) =  -439.166704870     A.U. after   14 cycles
 SCF Done:  E(RB3LYP) =  -439.166779618     A.U. after   12 cycles
 SCF Done:  E(RB3LYP) =  -439.166785024     A.U. after   11 cycles
 SCF Done:  E(RB3LYP) =  -439.166801634     A.U. after   12 cycles
 SCF Done:  E(RB3LYP) =  -439.166809146     A.U. after   11 cycles
 SCF Done:  E(RB3LYP) =  -439.166805549     A.U. after   11 cycles
 SCF Done:  E(RB3LYP) =  -439.166812429     A.U. after   10 cycles
 SCF Done:  E(RB3LYP) =  -439.166806565     A.U. after   12 cycles
 SCF Done:  E(RB3LYP) =  -439.166813132     A.U. after   10 cycles
 SCF Done:  E(RB3LYP) =  -439.166813326     A.U. after    9 cycles
 Optimization completed.
    -- Stationary point found.
 Normal termination of Gaussian 16 at Sat Jun 11 01:48:15 2022.

 --------------------------------------------------------------------
 #N Geom=AllCheck Guess=TCheck SCRF=Check GenChk RB3LYP/def2TZVP Freq
 --------------------------------------------------------------------

 Structure from the checkpoint file:  "checkpoint.chk"
 ------------------
 int_zmat_initalOpt
 ------------------
 Charge =  0 Multiplicity = 1

                          Input orientation:
 ---------------------------------------------------------------------
 Center     Atomic      Atomic             Coordinates (Angstroms)
 Number     Number       Type             X           Y           Z
 ---------------------------------------------------------------------
      1          1           0        0.000000    0.000000    0.000000
      2          7           0        0.000000    0.000000    1.006991
      3          6           0        1.097163    0.000000    1.801334
      4          6           0       -1.157476    0.069671    1.764365
      5          1           0        2.092000   -0.039094    1.390294
      6          6           0        0.666023    0.056781    3.113013
      7          6           0       -0.741590    0.098316    3.095320
      8          6           0       -2.415681    0.158471    1.082747
      9          1           0        1.307026    0.071390    3.978339
     10          1           0       -2.318355    0.146256    0.000561
     11          1           0       -1.376439    0.163375    3.961406
     12          6           0       -3.688783    0.293761    1.511318
     13          1           0       -4.441476    0.414187    0.741561
     14          6           0       -4.252104    0.347550    2.860864
     15          1           0       -5.166983    0.920251    2.998251
     16          6           0       -3.887834   -0.244338    3.975841
     17          8           0       -3.635905   -0.737202    5.004659
 ---------------------------------------------------------------------

 SCF Done:  E(RB3LYP) =  -439.166813326     A.U. after    1 cycles

 Isotropic polarizability for W=    0.000000      111.88 Bohr**3.
 End of Minotr F.D. properties file   721 does not exist.

                      1                      2                      3
                      A                      A                      A
 Frequencies --     40.3175                46.3020               103.5380
 Red. masses --      3.5188                 3.5435                 7.8692
 Frc consts  --      0.0034                 0.0045                 0.0497
 IR Inten    --      0.4851                 3.3471                 2.1517

                      4                      5                      6
                      A                      A                      A
 Frequencies --    167.0539               202.9082               321.2632
 Red. masses --      5.3955                 3.5138                 5.0823
 Frc consts  --      0.0887                 0.0852                 0.3091
 IR Inten    --      2.6683                 1.5987                 1.3866

                      7                      8                      9
                      A                      A                      A
 Frequencies --    440.7051               479.5958               538.0655
 Red. masses --      2.1715                 6.4111                 2.6529
 Frc consts  --      0.2485                 0.8688                 0.4525
 IR Inten    --     19.6279                 6.3798                 9.2112

                     10                     11                     12
                      A                      A                      A
 Frequencies --    540.5967               587.0105               625.9197
 Red. masses --      1.8251                 2.2835                 2.3287
 Frc consts  --      0.3142                 0.4636                 0.5375
 IR Inten    --     40.5962                49.2054                 0.2050

                     13                     14                     15
                      A                      A                      A
 Frequencies --    650.1812               674.3159               737.6730
 Red. masses --      5.6788                 2.4865                 1.3981
 Frc consts  --      1.4144                 0.6661                 0.4482
 IR Inten    --      5.4138                22.6259                 5.2631

                     16                     17                     18
                      A                      A                      A
 Frequencies --    752.1425               814.2335               830.1089
 Red. masses --      1.3754                 1.4497                 5.0716
 Frc consts  --      0.4584                 0.5663                 2.0590
 IR Inten    --    104.6058                 1.0271                22.5415

                     19                     20                     21
                      A                      A                      A
 Frequencies --    891.4722               895.2562               918.6203
 Red. masses --      1.3831                 4.6741                 4.6115
 Frc consts  --      0.6476                 2.2072                 2.2928
 IR Inten    --      0.0855                 0.4854                19.0219

                     22                     23                     24
                      A                      A                      A
 Frequencies --    947.3490               983.3418              1071.7549
 Red. masses --      1.2513                 2.6985                 1.3170
 Frc consts  --      0.6617                 1.5374                 0.8913
 IR Inten    --      1.2002                 3.5219                25.6884

                     25                     26                     27
                      A                      A                      A
 Frequencies --   1123.6517              1147.1235              1152.4624
 Red. masses --      1.7749                 1.6008                 1.4026
 Frc consts  --      1.3203                 1.2411                 1.0976
 IR Inten    --      4.6068                38.1475                59.8989

                     28                     29                     30
                      A                      A                      A
 Frequencies --   1243.2092              1261.5193              1326.2769
 Red. masses --      2.3157                 1.5360                 1.4462
 Frc consts  --      2.1087                 1.4403                 1.4989
 IR Inten    --      6.6744                 1.5422                 3.3366

                     31                     32                     33
                      A                      A                      A
 Frequencies --   1414.1371              1426.7240              1452.1740
 Red. masses --      2.9343                 2.4537                 2.5377
 Frc consts  --      3.4573                 2.9428                 3.1530
 IR Inten    --     45.6602                 1.3430                24.6303

                     34                     35                     36
                      A                      A                      A
 Frequencies --   1475.2437              1484.6317              1590.3396
 Red. masses --      2.2107                 2.9798                 3.1877
 Frc consts  --      2.8346                 3.8697                 4.7501
 IR Inten    --    113.8592                22.5959                 1.5414

                     37                     38                     39
                      A                      A                      A
 Frequencies --   1663.0214              2161.5205              3115.5531
 Red. masses --      6.2823                12.5500                 1.0814
 Frc consts  --     10.2369                34.5472                 6.1846
 IR Inten    --    108.2324               675.4328                11.7646

                     40                     41                     42
                      A                      A                      A
 Frequencies --   3131.0890              3162.6613              3247.7143
 Red. masses --      1.0845                 1.0895                 1.0903
 Frc consts  --      6.2645                 6.4206                 6.7758
 IR Inten    --      1.8633                12.8966                 6.8377

                     43                     44                     45
                      A                      A                      A
 Frequencies --   3264.5086              3271.5045              3629.9532
 Red. masses --      1.0954                 1.1036                 1.0810
 Frc consts  --      6.8777                 6.9594                 8.3921
 IR Inten    --      1.9389                 7.4925                95.2320

 - Thermochemistry -
 -------------------
 Temperature   298.150 Kelvin.  Pressure   1.00000 Atm.
 Atom     1 has atomic number  1 and mass   1.00783

 Molecular mass:   133.05276 amu.
 Principal axes and moments of inertia in atomic units:
                           1         2         3
     Eigenvalues --   708.743322034.506692694.78405
           X            0.92670   0.37472   0.02840
           Y            0.04120  -0.17644   0.98345
           Z           -0.37353   0.91020   0.17894
 This molecule is an asymmetric top.
 Rotational symmetry number  1.
 Warning -- assumption of classical behavior for rotation
           may cause significant error
 Rotational temperatures (Kelvin)      0.12221     0.04257     0.03214
 Rotational constants (GHZ):           2.54640     0.88707     0.66972
 Zero-point vibrational energy     340964.1 (Joules/Mol)
                                   81.49237 (Kcal/Mol)
 Warning -- explicit consideration of  11 degrees of freedom as
           vibrations may cause significant error
 Vibrational temperatures:     58.01    66.62   148.97   240.35   291.94
          (Kelvin)            462.23   634.08   690.03   774.16   777.80
                              844.58   900.56   935.47   970.19  1061.35
                             1082.17  1171.50  1194.34  1282.63  1288.07
                             1321.69  1363.02  1414.81  1542.02  1616.68
                             1650.45  1658.14  1788.70  1815.04  1908.22
                             2034.63  2052.74  2089.35  2122.55  2136.05
                             2288.14  2392.72  3109.95  4482.59  4504.94
                             4550.36  4672.74  4696.90  4706.97  5222.69

 Zero-point correction=                           0.129866 (Hartree/Particle)
 Thermal correction to Energy=                    0.138912
 Thermal correction to Enthalpy=                  0.139856
 Thermal correction to Gibbs Free Energy=         0.094253
 Sum of electronic and zero-point Energies=           -439.036947
 Sum of electronic and thermal Energies=              -439.027901
 Sum of electronic and thermal Enthalpies=            -439.026957
 Sum of electronic and thermal Free Energies=         -439.072560

                     E (Thermal)             CV                S
                      KCal/Mol        Cal/Mol-Kelvin    Cal/Mol-Kelvin
 Total                   87.169             33.193             95.981
 Electronic               0.000              0.000              0.000
 Translational            0.889              2.981             40.569
 Rotational               0.889              2.981             29.742
 Vibrational             85.391             27.231             25.669
 Vibration     1          0.594              1.981              5.243
 Vibration     2          0.595              1.979              4.969
 Vibration     3          0.605              1.946              3.387
 Vibration     4          0.624              1.883              2.468
 Vibration     5          0.639              1.836              2.107
 Vibration     6          0.707              1.633              1.304
 Vibration     7          0.801              1.381              0.824
 Vibration     8          0.836              1.295              0.711
 Vibration     9          0.893              1.166              0.569
 Vibration    10          0.896              1.160              0.564
 Vibration    11          0.944              1.059              0.473

                       ! Non-Optimized Parameters !
 Normal termination of Gaussian 16 at Sat Jun 11 01:58:29 2022.
