 Gaussian 16, Revision A.03,
 Gaussian 16:  ES64L-G16RevA.03 25-Dec-2016

 ----------------------------------------------------------------------
 # Opt=(Z-matrix, MaxStep=10) B3LYP/Def2TZVP Field=read NoSymm freq=nor
 aman pop=none
 ----------------------------------------------------------------------

 ------------------
 int_zmat_initalOpt
 ------------------
 Symbolic Z-matrix:
 Charge =  0 Multiplicity = 1

 SCF Done:  E(RB3LYP) =  -439.155276787     A.U. after   15 cycles
 SCF Done:  E(RB3LYP) =  -439.154899713     A.U. after   14 cycles
 SCF Done:  E(RB3LYP) =  -439.154041636     A.U. after   14 cycles
 SCF Done:  E(RB3LYP) =  -439.155289417     A.U. after   12 cycles
 SCF Done:  E(RB3LYP) =  -439.155094193     A.U. after   13 cycles
 SCF Done:  E(RB3LYP) =  -439.155333294     A.U. after   11 cycles
 SCF Done:  E(RB3LYP) =  -439.155261309     A.U. after   13 cycles
 SCF Done:  E(RB3LYP) =  -439.155366429     A.U. after   11 cycles
 SCF Done:  E(RB3LYP) =  -439.155370559     A.U. after   10 cycles
 SCF Done:  E(RB3LYP) =  -439.155343400     A.U. after   13 cycles
 SCF Done:  E(RB3LYP) =  -439.155374176     A.U. after   10 cycles
 SCF Done:  E(RB3LYP) =  -439.155374087     A.U. after   10 cycles
 SCF Done:  E(RB3LYP) =  -439.155374969     A.U. after    8 cycles
 Optimization completed.
    -- Stationary point found.
 Normal termination of Gaussian 16 at Fri Jun 10 22:52:37 2022.

 --------------------------------------------------------------------
 #N Geom=AllCheck Guess=TCheck SCRF=Check GenChk RB3LYP/def2TZVP Freq
 --------------------------------------------------------------------

 Structure from the checkpoint file:  "checkpoint.chk"
 ------------------
 int_zmat_initalOpt
 ------------------
 Charge =  0 Multiplicity = 1

                          Input orientation:
 ---------------------------------------------------------------------
 Center     Atomic      Atomic             Coordinates (Angstroms)
 Number     Number       Type             X           Y           Z
 ---------------------------------------------------------------------
      1          1           0        0.000000    0.000000    0.000000
      2          7           0        0.000000    0.000000    1.005275
      3          6           0        1.110803    0.000000    1.795212
      4          6           0       -1.147747   -0.019059    1.774903
      5          1           0        2.100846    0.003288    1.372560
      6          6           0        0.690444   -0.011802    3.105983
      7          6           0       -0.722774   -0.023963    3.098565
      8          6           0       -2.433451    0.043820    1.125005
      9          1           0        1.331025   -0.005726    3.971929
     10          1           0       -2.390991    0.366062    0.088486
     11          1           0       -1.354374    0.009716    3.968409
     12          6           0       -3.672707   -0.214832    1.586883
     13          1           0       -4.487642   -0.022134    0.899972
     14          6           0       -4.135625   -0.729489    2.867417
     15          1           0       -5.195595   -0.652694    3.089394
     16          6           0       -3.489539   -1.398985    3.802206
     17          8           0       -2.991202   -1.985387    4.670712
 ---------------------------------------------------------------------

 SCF Done:  E(RB3LYP) =  -439.155374969     A.U. after    1 cycles

 Isotropic polarizability for W=    0.000000      109.25 Bohr**3.
 End of Minotr F.D. properties file   721 does not exist.

                      1                      2                      3
                      A                      A                      A
 Frequencies --     38.1677                57.8303               120.3885
 Red. masses --      4.3239                 3.6245                 6.1893
 Frc consts  --      0.0037                 0.0071                 0.0529
 IR Inten    --      2.4203                 0.8901                 0.5259

                      4                      5                      6
                      A                      A                      A
 Frequencies --    164.2224               217.5938               318.5282
 Red. masses --      5.9702                 3.5343                 5.3205
 Frc consts  --      0.0949                 0.0986                 0.3181
 IR Inten    --      3.2666                 2.4132                 3.7021

                      7                      8                      9
                      A                      A                      A
 Frequencies --    470.1984               485.0653               499.2861
 Red. masses --      2.0579                 1.5871                 3.6270
 Frc consts  --      0.2681                 0.2200                 0.5327
 IR Inten    --     21.7702                33.8708                 5.8089

                     10                     11                     12
                      A                      A                      A
 Frequencies --    544.0419               586.6868               626.3177
 Red. masses --      4.9724                 2.1530                 2.6451
 Frc consts  --      0.8671                 0.4366                 0.6113
 IR Inten    --      4.7829                55.2045                 0.9219

                     13                     14                     15
                      A                      A                      A
 Frequencies --    653.3127               680.2857               728.8488
 Red. masses --      5.6201                 2.6768                 1.2432
 Frc consts  --      1.4133                 0.7299                 0.3891
 IR Inten    --      3.7269                 5.4755                92.3041

                     16                     17                     18
                      A                      A                      A
 Frequencies --    751.2605               805.9718               839.8169
 Red. masses --      1.5448                 1.4776                 4.0136
 Frc consts  --      0.5137                 0.5655                 1.6679
 IR Inten    --     14.9794                17.9826                21.1086

                     19                     20                     21
                      A                      A                      A
 Frequencies --    874.6115               897.6543               923.4385
 Red. masses --      1.3326                 5.4638                 4.5777
 Frc consts  --      0.6006                 2.5940                 2.2999
 IR Inten    --      0.5596                 1.8931                17.1635

                     22                     23                     24
                      A                      A                      A
 Frequencies --    945.6244               983.0579              1067.3652
 Red. masses --      1.2454                 2.5978                 1.3380
 Frc consts  --      0.6561                 1.4792                 0.8981
 IR Inten    --      1.7805                 2.0339                17.5508

                     25                     26                     27
                      A                      A                      A
 Frequencies --   1123.1296              1137.5892              1156.2942
 Red. masses --      1.8701                 1.4301                 1.5571
 Frc consts  --      1.3899                 1.0904                 1.2266
 IR Inten    --     21.4980                49.3430                 4.1373

                     28                     29                     30
                      A                      A                      A
 Frequencies --   1236.3814              1259.5008              1316.3091
 Red. masses --      2.3858                 1.4424                 1.3739
 Frc consts  --      2.1487                 1.3481                 1.4025
 IR Inten    --      6.8897                 0.3303                 2.5125

                     31                     32                     33
                      A                      A                      A
 Frequencies --   1423.1322              1437.5057              1444.4181
 Red. masses --      2.3360                 2.7066                 2.9206
 Frc consts  --      2.7875                 3.2952                 3.5901
 IR Inten    --      1.3351                 8.1660                 5.8198

                     34                     35                     36
                      A                      A                      A
 Frequencies --   1473.0520              1485.3690              1594.0331
 Red. masses --      2.1211                 3.3529                 3.3638
 Frc consts  --      2.7118                 4.3585                 5.0358
 IR Inten    --      4.4910                71.5164                 0.6467

                     37                     38                     39
                      A                      A                      A
 Frequencies --   1668.7314              2179.9265              3130.5319
 Red. masses --      6.5606                12.6570                 1.0848
 Frc consts  --     10.7638                35.4377                 6.2640
 IR Inten    --     23.2676               696.5671                 5.5001

                     40                     41                     42
                      A                      A                      A
 Frequencies --   3147.5868              3170.9940              3244.8158
 Red. masses --      1.0824                 1.0900                 1.0902
 Frc consts  --      6.3184                 6.4573                 6.7629
 IR Inten    --     10.9305                 8.2927                 4.5603

                     43                     44                     45
                      A                      A                      A
 Frequencies --   3265.4011              3272.1642              3647.7688
 Red. masses --      1.0964                 1.1019                 1.0803
 Frc consts  --      6.8880                 6.9510                 8.4696
 IR Inten    --      0.3231                 0.8908                68.4082

 - Thermochemistry -
 -------------------
 Temperature   298.150 Kelvin.  Pressure   1.00000 Atm.
 Atom     1 has atomic number  1 and mass   1.00783

 Molecular mass:   133.05276 amu.
 Principal axes and moments of inertia in atomic units:
                           1         2         3
     Eigenvalues --   739.443541896.884712545.87978
           X            0.90308   0.41043  -0.12646
           Y            0.26880  -0.31051   0.91177
           Z           -0.33495   0.85740   0.39074
 This molecule is an asymmetric top.
 Rotational symmetry number  1.
 Warning -- assumption of classical behavior for rotation
           may cause significant error
 Rotational temperatures (Kelvin)      0.11713     0.04566     0.03402
 Rotational constants (GHZ):           2.44067     0.95142     0.70889
 Zero-point vibrational energy     341499.2 (Joules/Mol)
                                   81.62027 (Kcal/Mol)
 Warning -- explicit consideration of  11 degrees of freedom as
           vibrations may cause significant error
 Vibrational temperatures:     54.91    83.20   173.21   236.28   313.07
          (Kelvin)            458.29   676.51   697.90   718.36   782.76
                              844.11   901.13   939.97   978.78  1048.65
                             1080.90  1159.61  1208.31  1258.37  1291.52
                             1328.62  1360.54  1414.40  1535.70  1615.93
                             1636.74  1663.65  1778.88  1812.14  1893.88
                             2047.57  2068.25  2078.20  2119.39  2137.11
                             2293.46  2400.93  3136.43  4504.14  4528.68
                             4562.35  4668.57  4698.18  4707.91  5248.33

 Zero-point correction=                           0.130070 (Hartree/Particle)
 Thermal correction to Energy=                    0.139050
 Thermal correction to Enthalpy=                  0.139994
 Thermal correction to Gibbs Free Energy=         0.094770
 Sum of electronic and zero-point Energies=           -439.025305
 Sum of electronic and thermal Energies=              -439.016325
 Sum of electronic and thermal Enthalpies=            -439.015381
 Sum of electronic and thermal Free Energies=         -439.060605

                     E (Thermal)             CV                S
                      KCal/Mol        Cal/Mol-Kelvin    Cal/Mol-Kelvin
 Total                   87.255             33.190             95.182
 Electronic               0.000              0.000              0.000
 Translational            0.889              2.981             40.569
 Rotational               0.889              2.981             29.658
 Vibrational             85.478             27.228             24.954
 Vibration     1          0.594              1.982              5.352
 Vibration     2          0.596              1.974              4.530
 Vibration     3          0.609              1.932              3.094
 Vibration     4          0.623              1.886              2.501
 Vibration     5          0.646              1.814              1.979
 Vibration     6          0.705              1.638              1.318
 Vibration     7          0.827              1.316              0.737
 Vibration     8          0.841              1.283              0.697
 Vibration     9          0.855              1.252              0.660
 Vibration    10          0.899              1.153              0.557
 Vibration    11          0.944              1.060              0.473

                       ! Non-Optimized Parameters !
 Normal termination of Gaussian 16 at Fri Jun 10 23:02:38 2022.
