 Gaussian 16, Revision A.03,
 Gaussian 16:  ES64L-G16RevA.03 25-Dec-2016

 ----------------------------------------------------------------------
 # Opt=(Z-matrix, MaxStep=10) B3LYP/Def2TZVP geom=allcheckpoint guess=r
 ead Field=read NoSymm freq=noraman pop=none
 ----------------------------------------------------------------------

 Structure from the checkpoint file:  "checkpoint.chk"
 ------------------
 int_zmat_initalOpt
 ------------------
 Charge =  0 Multiplicity = 1

 SCF Done:  E(RB3LYP) =  -439.157907828     A.U. after   11 cycles
 SCF Done:  E(RB3LYP) =  -439.157561919     A.U. after   14 cycles
 SCF Done:  E(RB3LYP) =  -439.156023788     A.U. after   13 cycles
 SCF Done:  E(RB3LYP) =  -439.157925235     A.U. after   12 cycles
 SCF Done:  E(RB3LYP) =  -439.157731908     A.U. after   13 cycles
 SCF Done:  E(RB3LYP) =  -439.157997203     A.U. after   12 cycles
 SCF Done:  E(RB3LYP) =  -439.157975999     A.U. after   13 cycles
 SCF Done:  E(RB3LYP) =  -439.157960877     A.U. after   12 cycles
 SCF Done:  E(RB3LYP) =  -439.158017293     A.U. after   12 cycles
 SCF Done:  E(RB3LYP) =  -439.158023953     A.U. after   10 cycles
 SCF Done:  E(RB3LYP) =  -439.158007038     A.U. after   12 cycles
 SCF Done:  E(RB3LYP) =  -439.158030265     A.U. after   11 cycles
 SCF Done:  E(RB3LYP) =  -439.158032501     A.U. after   11 cycles
 SCF Done:  E(RB3LYP) =  -439.158032669     A.U. after   10 cycles
 SCF Done:  E(RB3LYP) =  -439.158034339     A.U. after   10 cycles
 SCF Done:  E(RB3LYP) =  -439.158034463     A.U. after   10 cycles
 SCF Done:  E(RB3LYP) =  -439.158034651     A.U. after    9 cycles
 Optimization completed.
    -- Stationary point found.
 Normal termination of Gaussian 16 at Fri Jun 10 23:49:08 2022.

 --------------------------------------------------------------------
 #N Geom=AllCheck Guess=TCheck SCRF=Check GenChk RB3LYP/def2TZVP Freq
 --------------------------------------------------------------------

 Structure from the checkpoint file:  "checkpoint.chk"
 ------------------
 int_zmat_initalOpt
 ------------------
 Charge =  0 Multiplicity = 1

                          Input orientation:
 ---------------------------------------------------------------------
 Center     Atomic      Atomic             Coordinates (Angstroms)
 Number     Number       Type             X           Y           Z
 ---------------------------------------------------------------------
      1          1           0        0.000000    0.000000    0.000000
      2          7           0        0.000000    0.000000    1.005784
      3          6           0        1.104997    0.000000    1.798454
      4          6           0       -1.152675    0.025623    1.769756
      5          1           0        2.097182   -0.020266    1.381080
      6          6           0        0.679106    0.024651    3.108967
      7          6           0       -0.732375    0.039274    3.096586
      8          6           0       -2.425209    0.100089    1.102134
      9          1           0        1.318510    0.036347    3.975634
     10          1           0       -2.346677    0.279745    0.033618
     11          1           0       -1.363894    0.093801    3.965171
     12          6           0       -3.690697    0.009357    1.558273
     13          1           0       -4.472947    0.173149    0.827273
     14          6           0       -4.221265   -0.275645    2.886211
     15          1           0       -5.257347   -0.012719    3.079751
     16          6           0       -3.687107   -0.913922    3.907152
     17          8           0       -3.286620   -1.459026    4.853102
 ---------------------------------------------------------------------

 SCF Done:  E(RB3LYP) =  -439.158034651     A.U. after    1 cycles

 Isotropic polarizability for W=    0.000000      110.28 Bohr**3.
 End of Minotr F.D. properties file   721 does not exist.

                      1                      2                      3
                      A                      A                      A
 Frequencies --     37.5513                52.8859               116.9274
 Red. masses --      4.0931                 3.4790                 6.9227
 Frc consts  --      0.0034                 0.0057                 0.0558
 IR Inten    --      2.6684                 0.9557                 0.8092

                      4                      5                      6
                      A                      A                      A
 Frequencies --    165.6001               212.8582               320.8479
 Red. masses --      5.6974                 3.5190                 5.3065
 Frc consts  --      0.0921                 0.0939                 0.3219
 IR Inten    --      3.1565                 1.9635                 2.6277

                      7                      8                      9
                      A                      A                      A
 Frequencies --    460.2460               490.0157               504.3505
 Red. masses --      2.0153                 6.2479                 1.4261
 Frc consts  --      0.2515                 0.8839                 0.2137
 IR Inten    --     15.5987                11.3172                35.4571

                     10                     11                     12
                      A                      A                      A
 Frequencies --    544.2651               583.8856               625.8930
 Red. masses --      4.5464                 2.1841                 2.5503
 Frc consts  --      0.7935                 0.4387                 0.5886
 IR Inten    --      7.3879                52.1373                 0.6655

                     13                     14                     15
                      A                      A                      A
 Frequencies --    653.4459               677.2858               739.9657
 Red. masses --      6.0612                 2.5296                 1.2284
 Frc consts  --      1.5249                 0.6837                 0.3963
 IR Inten    --      3.7474                12.3136                99.1296

                     16                     17                     18
                      A                      A                      A
 Frequencies --    748.3542               808.5671               835.4643
 Red. masses --      1.5272                 1.5183                 4.4282
 Frc consts  --      0.5039                 0.5848                 1.8211
 IR Inten    --     11.6503                11.5965                21.7170

                     19                     20                     21
                      A                      A                      A
 Frequencies --    878.6635               896.7588               921.3802
 Red. masses --      1.3229                 5.4250                 4.5722
 Frc consts  --      0.6018                 2.5704                 2.2869
 IR Inten    --      0.1383                 1.2659                17.3731

                     22                     23                     24
                      A                      A                      A
 Frequencies --    943.4511               983.1394              1070.4022
 Red. masses --      1.2471                 2.6359                 1.3306
 Frc consts  --      0.6540                 1.5011                 0.8982
 IR Inten    --      1.5432                 2.1810                19.3417

                     25                     26                     27
                      A                      A                      A
 Frequencies --   1124.1481              1141.7299              1155.3844
 Red. masses --      1.8261                 1.4582                 1.5372
 Frc consts  --      1.3597                 1.1200                 1.2091
 IR Inten    --     13.3358                64.2217                 7.6319

                     28                     29                     30
                      A                      A                      A
 Frequencies --   1239.1026              1261.8058              1321.8114
 Red. masses --      2.4275                 1.4590                 1.3852
 Frc consts  --      2.1959                 1.3687                 1.4259
 IR Inten    --      6.6418                 0.6638                 2.7531

                     31                     32                     33
                      A                      A                      A
 Frequencies --   1421.9035              1434.5039              1448.2382
 Red. masses --      2.5442                 2.6033                 2.8417
 Frc consts  --      3.0307                 3.1562                 3.5116
 IR Inten    --      7.1834                 2.3825                12.2406

                     34                     35                     36
                      A                      A                      A
 Frequencies --   1476.4263              1482.8846              1592.9553
 Red. masses --      2.0765                 3.2570                 3.2983
 Frc consts  --      2.6669                 4.2197                 4.9312
 IR Inten    --      9.4018                89.5735                 0.9251

                     37                     38                     39
                      A                      A                      A
 Frequencies --   1668.0434              2173.9730              3131.0967
 Red. masses --      6.4563                12.6240                 1.0846
 Frc consts  --     10.5839                35.1524                 6.2648
 IR Inten    --     38.7217               692.3935                 3.0770

                     40                     41                     42
                      A                      A                      A
 Frequencies --   3139.2161              3168.7233              3246.4879
 Red. masses --      1.0822                 1.0898                 1.0905
 Frc consts  --      6.2835                 6.4470                 6.7720
 IR Inten    --      9.7262                10.0371                 4.9655

                     43                     44                     45
                      A                      A                      A
 Frequencies --   3267.4479              3274.6128              3642.6062
 Red. masses --      1.0975                 1.1006                 1.0805
 Frc consts  --      6.9034                 6.9535                 8.4472
 IR Inten    --      0.1962                 2.2486                76.9098

 - Thermochemistry -
 -------------------
 Temperature   298.150 Kelvin.  Pressure   1.00000 Atm.
 Atom     1 has atomic number  1 and mass   1.00783

 Molecular mass:   133.05276 amu.
 Principal axes and moments of inertia in atomic units:
                           1         2         3
     Eigenvalues --   725.556361952.379072612.11620
           X            0.91815   0.39117  -0.06321
           Y            0.17166  -0.24887   0.95320
           Z           -0.35713   0.88603   0.29565
 This molecule is an asymmetric top.
 Rotational symmetry number  1.
 Warning -- assumption of classical behavior for rotation
           may cause significant error
 Rotational temperatures (Kelvin)      0.11938     0.04436     0.03316
 Rotational constants (GHZ):           2.48739     0.92438     0.69091
 Zero-point vibrational energy     341446.0 (Joules/Mol)
                                   81.60754 (Kcal/Mol)
 Warning -- explicit consideration of  11 degrees of freedom as
           vibrations may cause significant error
 Vibrational temperatures:     54.03    76.09   168.23   238.26   306.26
          (Kelvin)            461.63   662.19   705.02   725.65   783.08
                              840.08   900.52   940.16   974.46  1064.65
                             1076.71  1163.35  1202.05  1264.20  1290.24
                             1325.66  1357.42  1414.52  1540.07  1617.40
                             1642.69  1662.34  1782.79  1815.46  1901.79
                             2045.80  2063.93  2083.69  2124.25  2133.54
                             2291.91  2399.94  3127.86  4504.95  4516.63
                             4559.09  4670.97  4701.13  4711.44  5240.90

 Zero-point correction=                           0.130050 (Hartree/Particle)
 Thermal correction to Energy=                    0.139049
 Thermal correction to Enthalpy=                  0.139994
 Thermal correction to Gibbs Free Energy=         0.094621
 Sum of electronic and zero-point Energies=           -439.027985
 Sum of electronic and thermal Energies=              -439.018985
 Sum of electronic and thermal Enthalpies=            -439.018041
 Sum of electronic and thermal Free Energies=         -439.063414

                     E (Thermal)             CV                S
                      KCal/Mol        Cal/Mol-Kelvin    Cal/Mol-Kelvin
 Total                   87.255             33.185             95.496
 Electronic               0.000              0.000              0.000
 Translational            0.889              2.981             40.569
 Rotational               0.889              2.981             29.694
 Vibrational             85.477             27.223             25.233
 Vibration     1          0.594              1.982              5.384
 Vibration     2          0.596              1.976              4.706
 Vibration     3          0.608              1.935              3.151
 Vibration     4          0.624              1.885              2.485
 Vibration     5          0.644              1.821              2.019
 Vibration     6          0.706              1.634              1.306
 Vibration     7          0.818              1.338              0.765
 Vibration     8          0.846              1.272              0.684
 Vibration     9          0.860              1.240              0.647
 Vibration    10          0.899              1.152              0.556
 Vibration    11          0.941              1.066              0.478

                       ! Non-Optimized Parameters !
 Normal termination of Gaussian 16 at Fri Jun 10 23:59:52 2022.
