 Gaussian 16, Revision A.03,
 Gaussian 16:  ES64L-G16RevA.03 25-Dec-2016

 ----------------------------------------------------------------------
 # Opt=(Z-matrix, MaxStep=10) B3LYP/Def2TZVP geom=allcheckpoint guess=r
 ead Field=read NoSymm freq=noraman pop=none
 ----------------------------------------------------------------------

 Structure from the checkpoint file:  "checkpoint.chk"
 ------------------
 int_zmat_initalOpt
 ------------------
 Charge =  0 Multiplicity = 1

 SCF Done:  E(RB3LYP) =  -387.394650860     A.U. after   10 cycles
 SCF Done:  E(RB3LYP) =  -387.394674737     A.U. after    9 cycles
 SCF Done:  E(RB3LYP) =  -387.394688661     A.U. after   11 cycles
 SCF Done:  E(RB3LYP) =  -387.394706884     A.U. after    9 cycles
 SCF Done:  E(RB3LYP) =  -387.394712167     A.U. after    8 cycles
 SCF Done:  E(RB3LYP) =  -387.394685166     A.U. after   11 cycles
 SCF Done:  E(RB3LYP) =  -387.394718254     A.U. after    9 cycles
 SCF Done:  E(RB3LYP) =  -387.394719358     A.U. after    7 cycles
 SCF Done:  E(RB3LYP) =  -387.394719598     A.U. after    6 cycles
 SCF Done:  E(RB3LYP) =  -387.394719678     A.U. after    7 cycles
 Optimization completed.
    -- Stationary point found.

 1\1\GINC-BHC0008\FOpt\RB3LYP\def2TZVP\C8H12O1\DHANAWAY\10-Jun-2022\1\\
 # Opt=(Z-matrix, MaxStep=10) B3LYP/Def2TZVP geom=allcheckpoint guess=r
 ead Field=read NoSymm freq=noraman pop=none\\int_zmat_initalOpt\\0,1\C
 \C,1,R2\C,1,R3,2,A3\C,1,R4,2,A4,3,D4,0\H,2,R5,1,A5,3,D5,0\C,2,R6,1,A6,
 5,D6,0\O,3,R7,1,A7,2,D7,0\H,3,R8,1,A8,7,D8,0\H,3,R9,1,A9,7,D9,0\C,4,R1
 0,1,A10,2,D10,0\C,4,R11,1,A11,10,D11,0\H,4,R12,1,A12,10,D12,0\H,6,R13,
 2,A13,1,D13,0\H,6,R14,2,A14,13,D14,0\H,6,R15,2,A15,13,D15,0\H,10,R16,4
 ,A16,1,D16,0\H,10,R17,4,A17,16,D17,0\C,11,R18,4,A18,1,D18,0\H,11,R19,4

 Normal termination of Gaussian 16 at Fri Jun 10 12:40:07 2022.

 --------------------------------------------------------------------
 #N Geom=AllCheck Guess=TCheck SCRF=Check GenChk RB3LYP/def2TZVP Freq
 --------------------------------------------------------------------

 Structure from the checkpoint file:  "checkpoint.chk"
 ------------------
 int_zmat_initalOpt
 ------------------
 Charge =  0 Multiplicity = 1

                          Input orientation:
 ---------------------------------------------------------------------
 Center     Atomic      Atomic             Coordinates (Angstroms)
 Number     Number       Type             X           Y           Z
 ---------------------------------------------------------------------
      1          6           0        0.000000    0.000000    0.000000
      2          6           0        0.000000    0.000000    1.327983
      3          6           0        1.217556    0.000000   -0.899909
      4          6           0       -1.206379    0.052614   -0.928666
      5          1           0       -0.952113    0.025073    1.848201
      6          6           0        1.210679   -0.062296    2.208073
      7          8           0        0.739573    0.212015   -2.233343
      8          1           0        1.759581   -0.949852   -0.887922
      9          1           0        1.921429    0.795407   -0.622885
     10          6           0       -0.590430    0.720239   -2.159056
     11          6           0       -2.453299    0.660101   -0.363593
     12          1           0       -1.442806   -0.984390   -1.209512
     13          1           0        2.143213   -0.009607    1.645101
     14          1           0        1.222609   -0.992202    2.784130
     15          1           0        1.204857    0.752344    2.937775
     16          1           0       -1.094303    0.471515   -3.093418
     17          1           0       -0.578654    1.812872   -2.040248
     18          6           0       -3.150885    1.663366   -0.882786
     19          1           0       -2.821135    0.193262    0.544977
     20          1           0       -2.859423    2.165584   -1.797644
     21          1           0       -4.057013    2.015538   -0.406905
 ---------------------------------------------------------------------

 SCF Done:  E(RB3LYP) =  -387.394719678     A.U. after    1 cycles

 Isotropic polarizability for W=    0.000000       97.42 Bohr**3.
 End of Minotr F.D. properties file   721 does not exist.

                      1                      2                      3
                      A                      A                      A
 Frequencies --     55.0070                77.6440               127.3364
 Red. masses --      2.4124                 2.5109                 1.0318
 Frc consts  --      0.0043                 0.0089                 0.0099
 IR Inten    --      0.5565                 0.3205                 0.3586

                      4                      5                      6
                      A                      A                      A
 Frequencies --    182.0335               183.0860               191.3321
 Red. masses --      2.5250                 3.2250                 2.3168
 Frc consts  --      0.0493                 0.0637                 0.0500
 IR Inten    --      0.2979                 2.2538                 5.9036

                      7                      8                      9
                      A                      A                      A
 Frequencies --    240.7447               319.9066               432.7033
 Red. masses --      2.9948                 2.5509                 2.7872
 Frc consts  --      0.1023                 0.1538                 0.3075
 IR Inten    --      0.5668                 0.2366                 0.8597

                     10                     11                     12
                      A                      A                      A
 Frequencies --    484.1029               537.1448               572.9625
 Red. masses --      2.5575                 2.3620                 2.8995
 Frc consts  --      0.3531                 0.4015                 0.5608
 IR Inten    --      3.6361                 3.1091                 2.4150

                     13                     14                     15
                      A                      A                      A
 Frequencies --    645.1606               697.8093               798.5603
 Red. masses --      5.0428                 1.9599                 2.3185
 Frc consts  --      1.2367                 0.5623                 0.8711
 IR Inten    --      1.4659                11.5430                 5.8118

                     16                     17                     18
                      A                      A                      A
 Frequencies --    858.2244               939.3424               944.0774
 Red. masses --      1.2696                 3.9533                 1.3522
 Frc consts  --      0.5509                 2.0552                 0.7101
 IR Inten    --      7.3216                39.1865                41.4367

                     19                     20                     21
                      A                      A                      A
 Frequencies --    957.1862               990.3673              1009.1527
 Red. masses --      3.4336                 1.6472                 1.7049
 Frc consts  --      1.8535                 0.9519                 1.0230
 IR Inten    --      8.0813                15.4344                 8.6384

                     22                     23                     24
                      A                      A                      A
 Frequencies --   1016.9917              1035.2199              1052.1468
 Red. masses --      1.4789                 1.4098                 1.4094
 Frc consts  --      0.9012                 0.8902                 0.9193
 IR Inten    --      7.3086                 1.3888                 9.6934

                     25                     26                     27
                      A                      A                      A
 Frequencies --   1065.5424              1085.0407              1105.9028
 Red. masses --      1.5674                 5.7706                 2.8444
 Frc consts  --      1.0485                 4.0028                 2.0496
 IR Inten    --      1.0250                57.5781                35.5361

                     28                     29                     30
                      A                      A                      A
 Frequencies --   1166.2708              1192.0433              1224.7661
 Red. masses --      2.0739                 1.9616                 1.1931
 Frc consts  --      1.6620                 1.6423                 1.0545
 IR Inten    --      5.9924                 6.8385                 0.7611

                     31                     32                     33
                      A                      A                      A
 Frequencies --   1237.1733              1285.2386              1317.7653
 Red. masses --      1.3102                 1.2893                 1.3922
 Frc consts  --      1.1816                 1.2548                 1.4243
 IR Inten    --      1.5280                 4.2774                 0.1859

                     34                     35                     36
                      A                      A                      A
 Frequencies --   1336.4870              1352.4876              1386.6673
 Red. masses --      1.2399                 1.2441                 1.4209
 Frc consts  --      1.3049                 1.3409                 1.6098
 IR Inten    --      2.3322                 0.8649                 4.8064

                     37                     38                     39
                      A                      A                      A
 Frequencies --   1400.0096              1418.6877              1462.7786
 Red. masses --      1.5357                 1.2818                 1.2064
 Frc consts  --      1.7734                 1.5200                 1.5208
 IR Inten    --      3.7659                 1.0694                 1.8538

                     40                     41                     42
                      A                      A                      A
 Frequencies --   1483.0002              1492.4921              1506.8995
 Red. masses --      1.0439                 1.0613                 1.0821
 Frc consts  --      1.3527                 1.3929                 1.4478
 IR Inten    --      5.5454                11.9454                 0.1249

                     43                     44                     45
                      A                      A                      A
 Frequencies --   1521.6477              1704.3464              1751.4761
 Red. masses --      1.0934                 4.5740                 7.6868
 Frc consts  --      1.4916                 7.8282                13.8932
 IR Inten    --      0.9886                19.7482                 0.9921

                     46                     47                     48
                      A                      A                      A
 Frequencies --   2959.9671              2973.9525              2980.6250
 Red. masses --      1.0756                 1.0747                 1.0708
 Frc consts  --      5.5524                 5.6000                 5.6049
 IR Inten    --     20.1187                50.4654                65.6836

                     49                     50                     51
                      A                      A                      A
 Frequencies --   3022.5924              3038.3608              3063.5505
 Red. masses --      1.0372                 1.0925                 1.0993
 Frc consts  --      5.5831                 5.9421                 6.0787
 IR Inten    --     26.2208                26.3026                11.6897

                     52                     53                     54
                      A                      A                      A
 Frequencies --   3085.7508              3098.3153              3137.7068
 Red. masses --      1.0927                 1.0991                 1.0594
 Frc consts  --      6.1301                 6.2162                 6.1451
 IR Inten    --     38.8081                18.2222                11.8406

                     55                     56                     57
                      A                      A                      A
 Frequencies --   3144.4765              3151.9478              3217.1902
 Red. masses --      1.0892                 1.0886                 1.1149
 Frc consts  --      6.3456                 6.3722                 6.7989
 IR Inten    --      0.4345                14.9198                12.8465

 - Thermochemistry -
 -------------------
 Temperature   298.150 Kelvin.  Pressure   1.00000 Atm.
 Atom     1 has atomic number  6 and mass  12.00000

 Molecular mass:   124.08882 amu.
 Principal axes and moments of inertia in atomic units:
                           1         2         3
     Eigenvalues --   842.159281348.551542059.89200
           X            0.76942  -0.57463   0.27892
           Y           -0.27174   0.10069   0.95709
           Z            0.57805   0.81220   0.07867
 This molecule is an asymmetric top.
 Rotational symmetry number  1.
 Warning -- assumption of classical behavior for rotation
           may cause significant error
 Rotational temperatures (Kelvin)      0.10285     0.06423     0.04205
 Rotational constants (GHZ):           2.14299     1.33828     0.87613
 Zero-point vibrational energy     476827.9 (Joules/Mol)
                                  113.96461 (Kcal/Mol)
 Warning -- explicit consideration of  12 degrees of freedom as
           vibrations may cause significant error
 Vibrational temperatures:     79.14   111.71   183.21   261.91   263.42
          (Kelvin)            275.28   346.38   460.27   622.56   696.52
                              772.83   824.37   928.24  1003.99  1148.95
                             1234.79  1351.50  1358.32  1377.18  1424.92
                             1451.95  1463.22  1489.45  1513.80  1533.08
                             1561.13  1591.15  1678.00  1715.08  1762.17
                             1780.02  1849.17  1895.97  1922.91  1945.93
                             1995.11  2014.30  2041.18  2104.61  2133.71
                             2147.36  2168.09  2189.31  2452.17  2519.98
                             4258.73  4278.85  4288.45  4348.84  4371.52
                             4407.77  4439.71  4457.78  4514.46  4524.20
                             4534.95  4628.82

 Zero-point correction=                           0.181614 (Hartree/Particle)
 Thermal correction to Energy=                    0.191205
 Thermal correction to Enthalpy=                  0.192149
 Thermal correction to Gibbs Free Energy=         0.146473
 Sum of electronic and zero-point Energies=           -387.213106
 Sum of electronic and thermal Energies=              -387.203515
 Sum of electronic and thermal Enthalpies=            -387.202571
 Sum of electronic and thermal Free Energies=         -387.248247

                     E (Thermal)             CV                S
                      KCal/Mol        Cal/Mol-Kelvin    Cal/Mol-Kelvin
 Total                  119.983             34.847             96.134
 Electronic               0.000              0.000              0.000
 Translational            0.889              2.981             40.361
 Rotational               0.889              2.981             29.238
 Vibrational            118.205             28.886             26.535
 Vibration     1          0.596              1.976              4.629
 Vibration     2          0.599              1.964              3.950
 Vibration     3          0.611              1.926              2.986
 Vibration     4          0.630              1.864              2.307
 Vibration     5          0.631              1.863              2.297
 Vibration     6          0.634              1.852              2.215
 Vibration     7          0.658              1.778              1.797
 Vibration     8          0.706              1.635              1.311
 Vibration     9          0.794              1.399              0.850
 Vibration    10          0.840              1.285              0.699
 Vibration    11          0.892              1.168              0.571
 Vibration    12          0.929              1.090              0.499

                       ! Non-Optimized Parameters !

 1\1\GINC-BHC0008\Freq\RB3LYP\def2TZVP\C8H12O1\DHANAWAY\10-Jun-2022\1\\
 #N Geom=AllCheck Guess=TCheck SCRF=Check GenChk RB3LYP/def2TZVP Freq\\
 int_zmat_initalOpt\\0,1\C\C,1,R2\C,1,R3,2,A3\C,1,R4,2,A4,3,D4,0\H,2,R5
 ,1,A5,3,D5,0\C,2,R6,1,A6,5,D6,0\O,3,R7,1,A7,2,D7,0\H,3,R8,1,A8,7,D8,0\
 H,3,R9,1,A9,7,D9,0\C,4,R10,1,A10,2,D10,0\C,4,R11,1,A11,10,D11,0\H,4,R1
 2,1,A12,10,D12,0\H,6,R13,2,A13,1,D13,0\H,6,R14,2,A14,13,D14,0\H,6,R15,
 2,A15,13,D15,0\H,10,R16,4,A16,1,D16,0\H,10,R17,4,A17,16,D17,0\C,11,R18
 ,4,A18,1,D18,0\H,11,R19,4,A19,18,D19,0\H,18,R20,11,A20,4,D20,0\H,18,R2

 Normal termination of Gaussian 16 at Fri Jun 10 12:52:57 2022.
