 Gaussian 16, Revision A.03,
 Gaussian 16:  ES64L-G16RevA.03 25-Dec-2016

 ----------------------------------------------------------------------
 # Opt=(TS, CalcFC, noeigentest, Z-matrix, MaxStep=10) geom=allcheckpoi
 nt guess=read Field=read NoSymm B3LYP/Def2TZVP freq=noraman pop=none
 ----------------------------------------------------------------------

 Structure from the checkpoint file:  "checkpoint.chk"
 -----------------
 ts_zmat_initalOpt
 -----------------
 Charge =  0 Multiplicity = 1

 SCF Done:  E(RB3LYP) =  -387.291402701     A.U. after   11 cycles
 SCF Done:  E(RB3LYP) =  -387.291431538     A.U. after   11 cycles
 Optimization completed.
    -- Stationary point found.
 Normal termination of Gaussian 16 at Fri Jun 10 12:40:24 2022.

 --------------------------------------------------------------------
 #N Geom=AllCheck Guess=TCheck SCRF=Check GenChk RB3LYP/def2TZVP Freq
 --------------------------------------------------------------------

 Structure from the checkpoint file:  "checkpoint.chk"
 -----------------
 ts_zmat_initalOpt
 -----------------
 Charge =  0 Multiplicity = 1

                          Input orientation:
 ---------------------------------------------------------------------
 Center     Atomic      Atomic             Coordinates (Angstroms)
 Number     Number       Type             X           Y           Z
 ---------------------------------------------------------------------
      1          6           0        0.000000    0.000000    0.000000
      2          6           0        0.000000    0.000000    1.249117
      3          6           0        0.645226    0.000000   -1.315393
      4          6           0        0.730185   -0.366879    2.488041
      5          8           0        0.382095    1.235233   -2.009078
      6          1           0        0.305075   -0.837752   -1.933013
      7          1           0        1.730465   -0.079382   -1.201692
      8          1           0        1.721422   -0.765304    2.266309
      9          1           0        0.178067   -1.121950    3.051592
     10          1           0        0.841699    0.499846    3.143427
     11          6           0       -0.691126    1.978406   -1.416922
     12          6           0       -1.730827    1.038412   -0.888675
     13          1           0       -1.090506    2.586899   -2.234756
     14          1           0       -0.317087    2.653979   -0.639691
     15          6           0       -2.539021    1.156743    0.223302
     16          1           0       -2.108430    0.380067   -1.668922
     17          6           0       -2.105500    1.655377    1.467003
     18          1           0       -3.394909    0.488841    0.253473
     19          1           0       -1.160136    0.705746    1.627828
     20          1           0       -1.440162    2.513426    1.501177
     21          1           0       -2.800203    1.616703    2.299494
 ---------------------------------------------------------------------

 SCF Done:  E(RB3LYP) =  -387.291431538     A.U. after    1 cycles

 Isotropic polarizability for W=    0.000000      105.76 Bohr**3.
 End of Minotr F.D. properties file   721 does not exist.

 ******    1 imaginary frequencies (negative Signs) ******

                      1                      2                      3
                      A                      A                      A
 Frequencies --  -1183.2300               110.1774               116.9799
 Red. masses --      1.4529                 2.2945                 1.1580
 Frc consts  --      1.1984                 0.0164                 0.0093
 IR Inten    --      4.4853                 0.8256                 0.1156

                      4                      5                      6
                      A                      A                      A
 Frequencies --    152.2551               199.5187               212.1702
 Red. masses --      3.0301                 2.4295                 2.6955
 Frc consts  --      0.0414                 0.0570                 0.0715
 IR Inten    --      7.1136                 2.3731                 2.8343

                      7                      8                      9
                      A                      A                      A
 Frequencies --    257.7160               267.9738               352.1063
 Red. masses --      3.1198                 3.1417                 3.6416
 Frc consts  --      0.1221                 0.1329                 0.2660
 IR Inten    --      1.7420                 1.0032                 1.1588

                     10                     11                     12
                      A                      A                      A
 Frequencies --    409.4501               421.5863               482.7696
 Red. masses --      3.0285                 2.7658                 4.0244
 Frc consts  --      0.2991                 0.2896                 0.5526
 IR Inten    --      0.2911                 3.8246                 2.2799

                     13                     14                     15
                      A                      A                      A
 Frequencies --    567.7077               586.7985               647.3833
 Red. masses --      2.6505                 3.5839                 3.3868
 Frc consts  --      0.5033                 0.7271                 0.8363
 IR Inten    --      0.3137                 5.8979                 1.9685

                     16                     17                     18
                      A                      A                      A
 Frequencies --    716.5426               847.4652               852.7413
 Red. masses --      1.5369                 1.5345                 2.0484
 Frc consts  --      0.4649                 0.6493                 0.8776
 IR Inten    --     19.3432                17.0602                14.1999

                     19                     20                     21
                      A                      A                      A
 Frequencies --    892.4422               958.5737              1014.3369
 Red. masses --      4.6183                 1.9180                 1.6310
 Frc consts  --      2.1672                 1.0384                 0.9887
 IR Inten    --     42.5489                11.9804                 4.8229

                     22                     23                     24
                      A                      A                      A
 Frequencies --   1020.7383              1029.0503              1047.7276
 Red. masses --      1.7323                 1.5552                 3.0013
 Frc consts  --      1.0634                 0.9703                 1.9411
 IR Inten    --     18.0785                 1.7775                57.8070

                     25                     26                     27
                      A                      A                      A
 Frequencies --   1056.0516              1062.2135              1068.6311
 Red. masses --      1.4398                 1.4658                 1.7115
 Frc consts  --      0.9460                 0.9744                 1.1515
 IR Inten    --     11.6009                 8.6035                 4.4282

                     28                     29                     30
                      A                      A                      A
 Frequencies --   1118.0702              1138.9210              1199.3484
 Red. masses --      1.9739                 2.5761                 1.4161
 Frc consts  --      1.4538                 1.9688                 1.2001
 IR Inten    --     11.9267                15.0644                 1.7923

                     31                     32                     33
                      A                      A                      A
 Frequencies --   1226.7885              1249.3273              1304.1800
 Red. masses --      1.2131                 1.1701                 1.0838
 Frc consts  --      1.0757                 1.0761                 1.0861
 IR Inten    --     14.7720                 9.2367                11.6166

                     34                     35                     36
                      A                      A                      A
 Frequencies --   1327.4686              1350.1841              1377.6669
 Red. masses --      1.2191                 1.2338                 1.3075
 Frc consts  --      1.2657                 1.3252                 1.4621
 IR Inten    --      3.6562                 3.7395                31.1179

                     37                     38                     39
                      A                      A                      A
 Frequencies --   1412.7962              1435.2008              1458.5908
 Red. masses --      1.2039                 1.1170                 1.2184
 Frc consts  --      1.4158                 1.3556                 1.5273
 IR Inten    --      3.3821                 2.5960                 0.4322

                     40                     41                     42
                      A                      A                      A
 Frequencies --   1479.6848              1486.0441              1506.6172
 Red. masses --      1.0436                 1.0433                 1.0929
 Frc consts  --      1.3463                 1.3575                 1.4617
 IR Inten    --      9.7880                10.1874                 0.3717

                     43                     44                     45
                      A                      A                      A
 Frequencies --   1513.2594              1515.8642              1620.7357
 Red. masses --      1.0950                 1.4738                 4.0793
 Frc consts  --      1.4774                 1.9953                 6.3133
 IR Inten    --      2.3039                 2.3256                25.0186

                     46                     47                     48
                      A                      A                      A
 Frequencies --   2049.6047              3000.1042              3009.1928
 Red. masses --      8.6011                 1.0569                 1.0597
 Frc consts  --     21.2885                 5.6049                 5.6537
 IR Inten    --     24.8594                79.4339                33.8696

                     49                     50                     51
                      A                      A                      A
 Frequencies --   3029.3950              3030.4866              3041.2574
 Red. masses --      1.1035                 1.0344                 1.1030
 Frc consts  --      5.9665                 5.5972                 6.0110
 IR Inten    --     51.5864                23.0307                16.6449

                     52                     53                     54
                      A                      A                      A
 Frequencies --   3085.5271              3098.3807              3105.0169
 Red. masses --      1.0999                 1.1036                 1.0829
 Frc consts  --      6.1699                 6.2420                 6.1512
 IR Inten    --      7.6889                 8.9065                25.6105

                     55                     56                     57
                      A                      A                      A
 Frequencies --   3106.5095              3136.7773              3181.3078
 Red. masses --      1.0601                 1.0900                 1.1107
 Frc consts  --      6.0276                 6.3189                 6.6228
 IR Inten    --      5.1336                14.3591                12.4756

 - Thermochemistry -
 -------------------
 Temperature   298.150 Kelvin.  Pressure   1.00000 Atm.
 Atom     1 has atomic number  6 and mass  12.00000

 Molecular mass:   124.08882 amu.
 Principal axes and moments of inertia in atomic units:
                           1         2         3
     Eigenvalues --   909.776981205.767851877.28577
           X            0.04041   0.88871   0.45668
           Y           -0.28829  -0.42724   0.85694
           Z            0.95669  -0.16629   0.23895
 This molecule is an asymmetric top.
 Rotational symmetry number  1.
 Warning -- assumption of classical behavior for rotation
           may cause significant error
 Rotational temperatures (Kelvin)      0.09520     0.07183     0.04614
 Rotational constants (GHZ):           1.98372     1.49676     0.96136
    1 imaginary frequencies ignored.
 Zero-point vibrational energy     460235.8 (Joules/Mol)
                                  109.99899 (Kcal/Mol)
 Warning -- explicit consideration of  13 degrees of freedom as
           vibrations may cause significant error
 Vibrational temperatures:    158.52   168.31   219.06   287.06   305.27
          (Kelvin)            370.80   385.55   506.60   589.11   606.57
                              694.60   816.80   844.27   931.44  1030.94
                             1219.31  1226.90  1284.03  1379.17  1459.40
                             1468.61  1480.57  1507.45  1519.42  1528.29
                             1537.52  1608.65  1638.65  1725.59  1765.08
                             1797.50  1876.42  1909.93  1942.61  1982.16
                             2032.70  2064.93  2098.59  2128.94  2138.09
                             2167.69  2177.24  2180.99  2331.88  2948.92
                             4316.48  4329.56  4358.62  4360.19  4375.69
                             4439.39  4457.88  4467.43  4469.57  4513.12
                             4577.19

 Zero-point correction=                           0.175295 (Hartree/Particle)
 Thermal correction to Energy=                    0.184623
 Thermal correction to Enthalpy=                  0.185567
 Thermal correction to Gibbs Free Energy=         0.141438
 Sum of electronic and zero-point Energies=           -387.116137
 Sum of electronic and thermal Energies=              -387.106809
 Sum of electronic and thermal Enthalpies=            -387.105865
 Sum of electronic and thermal Free Energies=         -387.149993

                     E (Thermal)             CV                S
                      KCal/Mol        Cal/Mol-Kelvin    Cal/Mol-Kelvin
 Total                  115.852             35.237             92.877
 Electronic               0.000              0.000              0.000
 Translational            0.889              2.981             40.361
 Rotational               0.889              2.981             29.111
 Vibrational            114.075             29.275             23.404
 Vibration     1          0.606              1.941              3.266
 Vibration     2          0.608              1.935              3.150
 Vibration     3          0.619              1.900              2.644
 Vibration     4          0.638              1.841              2.138
 Vibration     5          0.643              1.822              2.025
 Vibration     6          0.667              1.750              1.677
 Vibration     7          0.673              1.732              1.609
 Vibration     8          0.729              1.571              1.157
 Vibration     9          0.774              1.450              0.929
 Vibration    10          0.784              1.423              0.887
 Vibration    11          0.839              1.288              0.703
 Vibration    12          0.924              1.101              0.509
 Vibration    13          0.944              1.060              0.473

 Optimization completed.
    -- Stationary point found.

 1\1\GINC-BHC0069\Freq\RB3LYP\def2TZVP\C8H12O1\DHANAWAY\10-Jun-2022\1\\
 #N Geom=AllCheck Guess=TCheck SCRF=Check GenChk RB3LYP/def2TZVP Freq\\
 ts_zmat_initalOpt\\0,1\C\C,1,R2\C,1,R3,2,A3\C,2,R4,1,A4,3,D4,0\O,3,R5,
 1,A5,2,D5,0\H,3,R6,1,A6,5,D6,0\H,3,R7,1,A7,5,D7,0\H,4,R8,2,A8,1,D8,0\H
 ,4,R9,2,A9,8,D9,0\H,4,R10,2,A10,8,D10,0\C,5,R11,3,A11,1,D11,0\C,11,R12
 ,5,A12,3,D12,0\H,11,R13,5,A13,12,D13,0\H,11,R14,5,A14,12,D14,0\C,12,R1
 5,11,A15,5,D15,0\H,12,R16,11,A16,15,D16,0\C,15,R17,12,A17,11,D17,0\H,1
 5,R18,12,A18,17,D18,0\H,17,R19,15,A19,12,D19,0\H,17,R20,15,A20,19,D20,

 Normal termination of Gaussian 16 at Fri Jun 10 12:53:22 2022.
