 Gaussian 16, Revision A.03,
 Gaussian 16:  ES64L-G16RevA.03 25-Dec-2016

 ----------------------------------------------------------------------
 # Opt=(TS, CalcFC, noeigentest, Z-matrix, MaxStep=10) Field=read NoSym
 m B3LYP/Def2TZVP freq=noraman pop=none
 ----------------------------------------------------------------------

 -----------------
 ts_zmat_initalOpt
 -----------------
 Symbolic Z-matrix:
 Charge =  0 Multiplicity = 1

 SCF Done:  E(RB3LYP) =  -387.288881127     A.U. after   14 cycles
 SCF Done:  E(RB3LYP) =  -387.288911133     A.U. after    9 cycles
 Optimization completed.
    -- Stationary point found.
 Normal termination of Gaussian 16 at Fri Jun 10 23:05:01 2022.

 --------------------------------------------------------------------
 #N Geom=AllCheck Guess=TCheck SCRF=Check GenChk RB3LYP/def2TZVP Freq
 --------------------------------------------------------------------

 Structure from the checkpoint file:  "checkpoint.chk"
 -----------------
 ts_zmat_initalOpt
 -----------------
 Charge =  0 Multiplicity = 1

                          Input orientation:
 ---------------------------------------------------------------------
 Center     Atomic      Atomic             Coordinates (Angstroms)
 Number     Number       Type             X           Y           Z
 ---------------------------------------------------------------------
      1          1           0        0.000000    0.000000    0.000000
      2          6           0        0.000000    0.000000    1.095063
      3          6           0        1.374182    0.000000    1.606546
      4          8           0       -0.696523    1.183997    1.513639
      5          1           0       -0.554138   -0.883022    1.433865
      6          6           0       -0.015846    1.875069    2.573658
      7          6           0        2.615934    0.032022    1.471778
      8          6           0        0.647435    0.879907    3.475781
      9          1           0       -0.802877    2.420224    3.101419
     10          1           0        0.694593    2.603441    2.169639
     11          6           0        3.772702   -0.225335    0.580357
     12          6           0        1.832850    0.981175    4.174853
     13          1           0       -0.072151    0.174024    3.886729
     14          1           0        3.455143   -0.562282   -0.408894
     15          1           0        4.429152   -0.987656    1.006296
     16          1           0        4.375584    0.678032    0.460652
     17          6           0        3.009714    1.553499    3.655724
     18          1           0        1.966478    0.266600    4.981446
     19          1           0        2.946821    2.455787    3.054178
     20          1           0        3.106155    0.677775    2.645282
     21          1           0        3.906029    1.506918    4.265154
 ---------------------------------------------------------------------

 SCF Done:  E(RB3LYP) =  -387.288911133     A.U. after    1 cycles

 Isotropic polarizability for W=    0.000000      105.53 Bohr**3.
 End of Minotr F.D. properties file   721 does not exist.

 ******    1 imaginary frequencies (negative Signs) ******

                      1                      2                      3
                      A                      A                      A
 Frequencies --  -1179.8282               108.8554               119.5134
 Red. masses --      1.4558                 2.4589                 1.1327
 Frc consts  --      1.1940                 0.0172                 0.0095
 IR Inten    --      2.6170                 0.8018                 0.0947

                      4                      5                      6
                      A                      A                      A
 Frequencies --    151.2640               194.8268               210.9369
 Red. masses --      2.9435                 2.4394                 2.6412
 Frc consts  --      0.0397                 0.0546                 0.0692
 IR Inten    --      6.9740                 2.5932                 2.8233

                      7                      8                      9
                      A                      A                      A
 Frequencies --    260.8620               274.9096               353.4846
 Red. masses --      2.6366                 3.8284                 3.6300
 Frc consts  --      0.1057                 0.1705                 0.2672
 IR Inten    --      0.6765                 1.8128                 1.5631

                     10                     11                     12
                      A                      A                      A
 Frequencies --    409.0550               422.1451               484.0330
 Red. masses --      2.9849                 2.8462                 4.0309
 Frc consts  --      0.2943                 0.2988                 0.5564
 IR Inten    --      0.1645                 3.9194                 1.6135

                     13                     14                     15
                      A                      A                      A
 Frequencies --    567.8141               589.6343               647.0512
 Red. masses --      2.6834                 3.4896                 3.3135
 Frc consts  --      0.5097                 0.7148                 0.8174
 IR Inten    --      0.3650                 5.3232                 1.8270

                     16                     17                     18
                      A                      A                      A
 Frequencies --    716.8414               850.3712               856.3222
 Red. masses --      1.5589                 1.4933                 2.1332
 Frc consts  --      0.4720                 0.6362                 0.9216
 IR Inten    --     18.5454                16.4017                14.1491

                     19                     20                     21
                      A                      A                      A
 Frequencies --    896.4234               958.3133              1017.1588
 Red. masses --      4.5663                 1.9383                 1.7009
 Frc consts  --      2.1619                 1.0488                 1.0369
 IR Inten    --     42.8691                12.6433                 5.5814

                     22                     23                     24
                      A                      A                      A
 Frequencies --   1020.7445              1031.5251              1048.3279
 Red. masses --      1.7130                 1.5592                 2.9538
 Frc consts  --      1.0516                 0.9775                 1.9126
 IR Inten    --     17.7101                 3.1760                59.6060

                     25                     26                     27
                      A                      A                      A
 Frequencies --   1058.1503              1065.5459              1069.2909
 Red. masses --      1.4183                 1.4746                 1.7049
 Frc consts  --      0.9357                 0.9865                 1.1485
 IR Inten    --      6.6539                10.0001                 6.3522

                     28                     29                     30
                      A                      A                      A
 Frequencies --   1119.3795              1141.2865              1199.8765
 Red. masses --      1.9272                 2.6065                 1.3905
 Frc consts  --      1.4228                 2.0003                 1.1795
 IR Inten    --     11.8093                13.7438                 1.9590

                     31                     32                     33
                      A                      A                      A
 Frequencies --   1227.6826              1250.3999              1307.3251
 Red. masses --      1.2157                 1.1772                 1.0970
 Frc consts  --      1.0796                 1.0844                 1.1047
 IR Inten    --     13.3435                 8.5467                12.1455

                     34                     35                     36
                      A                      A                      A
 Frequencies --   1331.4444              1350.8337              1377.8687
 Red. masses --      1.2018                 1.2368                 1.3077
 Frc consts  --      1.2552                 1.3297                 1.4627
 IR Inten    --      2.3775                 4.2675                29.8600

                     37                     38                     39
                      A                      A                      A
 Frequencies --   1411.6892              1438.6491              1461.7200
 Red. masses --      1.2105                 1.1311                 1.2044
 Frc consts  --      1.4214                 1.3793                 1.5161
 IR Inten    --      4.1568                 3.0211                 0.5460

                     40                     41                     42
                      A                      A                      A
 Frequencies --   1480.8030              1487.1723              1506.8076
 Red. masses --      1.0437                 1.0440                 1.0925
 Frc consts  --      1.3483                 1.3604                 1.4615
 IR Inten    --      8.3906                 9.2709                 0.1584

                     43                     44                     45
                      A                      A                      A
 Frequencies --   1514.3339              1516.7943              1621.5052
 Red. masses --      1.0956                 1.4717                 4.0368
 Frc consts  --      1.4802                 1.9948                 6.2535
 IR Inten    --      2.6351                 3.3260                24.8147

                     46                     47                     48
                      A                      A                      A
 Frequencies --   2047.2899              2994.1456              3013.5070
 Red. masses --      8.6298                 1.0601                 1.0613
 Frc consts  --     21.3114                 5.5997                 5.6784
 IR Inten    --     27.2760                75.8737                36.7125

                     49                     50                     51
                      A                      A                      A
 Frequencies --   3022.3282              3024.0537              3051.4134
 Red. masses --      1.0415                 1.0920                 1.1012
 Frc consts  --      5.6050                 5.8837                 6.0412
 IR Inten    --     59.4922                15.9233                30.1076

                     52                     53                     54
                      A                      A                      A
 Frequencies --   3078.7143              3083.4950              3105.1840
 Red. masses --      1.1000                 1.1032                 1.0856
 Frc consts  --      6.1428                 6.1798                 6.1673
 IR Inten    --      9.6078                16.1355                21.8054

                     55                     56                     57
                      A                      A                      A
 Frequencies --   3108.4446              3139.9315              3183.4498
 Red. masses --      1.0581                 1.0900                 1.1107
 Frc consts  --      6.0239                 6.3317                 6.6318
 IR Inten    --      6.9913                12.7281                10.2012

 - Thermochemistry -
 -------------------
 Temperature   298.150 Kelvin.  Pressure   1.00000 Atm.
 Atom     1 has atomic number  1 and mass   1.00783

 Molecular mass:   124.08882 amu.
 Principal axes and moments of inertia in atomic units:
                           1         2         3
     Eigenvalues --   910.092281203.456031874.83528
           X            0.95448   0.24798   0.16575
           Y           -0.25131   0.36928   0.89469
           Z           -0.16066   0.89562  -0.41479
 This molecule is an asymmetric top.
 Rotational symmetry number  1.
 Warning -- assumption of classical behavior for rotation
           may cause significant error
 Rotational temperatures (Kelvin)      0.09517     0.07197     0.04620
 Rotational constants (GHZ):           1.98303     1.49963     0.96261
    1 imaginary frequencies ignored.
 Zero-point vibrational energy     460448.2 (Joules/Mol)
                                  110.04976 (Kcal/Mol)
 Warning -- explicit consideration of  13 degrees of freedom as
           vibrations may cause significant error
 Vibrational temperatures:    156.62   171.95   217.64   280.31   303.49
          (Kelvin)            375.32   395.53   508.59   588.54   607.37
                              696.42   816.96   848.35   930.96  1031.37
                             1223.49  1232.06  1289.75  1378.80  1463.46
                             1468.62  1484.13  1508.31  1522.44  1533.08
                             1538.47  1610.54  1642.06  1726.35  1766.36
                             1799.05  1880.95  1915.65  1943.55  1982.45
                             2031.11  2069.90  2103.09  2130.55  2139.71
                             2167.96  2178.79  2182.33  2332.98  2945.59
                             4307.91  4335.76  4348.46  4350.94  4390.30
                             4429.58  4436.46  4467.67  4472.36  4517.66
                             4580.27

 Zero-point correction=                           0.175375 (Hartree/Particle)
 Thermal correction to Energy=                    0.184690
 Thermal correction to Enthalpy=                  0.185634
 Thermal correction to Gibbs Free Energy=         0.141528
 Sum of electronic and zero-point Energies=           -387.113536
 Sum of electronic and thermal Energies=              -387.104222
 Sum of electronic and thermal Enthalpies=            -387.103277
 Sum of electronic and thermal Free Energies=         -387.147384

                     E (Thermal)             CV                S
                      KCal/Mol        Cal/Mol-Kelvin    Cal/Mol-Kelvin
 Total                  115.894             35.178             92.829
 Electronic               0.000              0.000              0.000
 Translational            0.889              2.981             40.361
 Rotational               0.889              2.981             29.108
 Vibrational            114.117             29.216             23.359
 Vibration     1          0.606              1.942              3.289
 Vibration     2          0.609              1.933              3.108
 Vibration     3          0.619              1.901              2.656
 Vibration     4          0.635              1.847              2.181
 Vibration     5          0.643              1.824              2.036
 Vibration     6          0.669              1.744              1.656
 Vibration     7          0.677              1.720              1.565
 Vibration     8          0.730              1.568              1.151
 Vibration     9          0.773              1.451              0.930
 Vibration    10          0.784              1.422              0.885
 Vibration    11          0.840              1.285              0.699
 Vibration    12          0.924              1.101              0.508
 Vibration    13          0.947              1.054              0.468

 Optimization completed.
    -- Stationary point found.

 1\1\GINC-BHC0034\Freq\RB3LYP\def2TZVP\C8H12O1\DHANAWAY\10-Jun-2022\1\\
 #N Geom=AllCheck Guess=TCheck SCRF=Check GenChk RB3LYP/def2TZVP Freq\\
 ts_zmat_initalOpt\\0,1\H\C,1,R2\C,2,R3,1,A3\O,2,R4,1,A4,3,D4,0\H,2,R5,
 1,A5,3,D5,0\C,4,R6,2,A6,1,D6,0\C,3,R7,2,A7,1,D7,0\C,6,R8,4,A8,2,D8,0\H
 ,6,R9,4,A9,8,D9,0\H,6,R10,4,A10,8,D10,0\C,7,R11,3,A11,2,D11,0\C,8,R12,
 6,A12,4,D12,0\H,8,R13,6,A13,12,D13,0\H,11,R14,7,A14,3,D14,0\H,11,R15,7
 ,A15,14,D15,0\H,11,R16,7,A16,14,D16,0\C,12,R17,8,A17,6,D17,0\H,12,R18,
 8,A18,17,D18,0\H,17,R19,12,A19,8,D19,0\H,17,R20,12,A20,19,D20,0\H,17,R

 Normal termination of Gaussian 16 at Fri Jun 10 23:17:31 2022.
