 Gaussian 16, Revision A.03,
 Gaussian 16:  ES64L-G16RevA.03 25-Dec-2016

 --------------------------
 # sp B3LYP/Def2TZVP NoSymm
 --------------------------

 ---------------------------
 ts_initalOpt_zmat_AlignedSp
 ---------------------------
 Symbolic Z-matrix:
 Charge =  0 Multiplicity = 1

                          Input orientation:
 ---------------------------------------------------------------------
 Center     Atomic      Atomic             Coordinates (Angstroms)
 Number     Number       Type             X           Y           Z
 ---------------------------------------------------------------------
      1          6           0        0.000000    0.000000    0.000000
      2          6           0        0.000000    0.000000    1.249316
      3          6           0        0.664393    0.000000   -1.308953
      4          6           0        0.757597   -0.326175    2.481892
      5          8           0        0.394615    1.219142   -2.013049
      6          1           0        0.345552   -0.849993   -1.922725
      7          1           0        1.749153   -0.065722   -1.176291
      8          1           0        1.752581   -0.714814    2.254396
      9          1           0        0.228190   -1.072316    3.079508
     10          1           0        0.870293    0.560685    3.110443
     11          6           0       -0.683393    1.965635   -1.431987
     12          6           0       -1.717322    1.018408   -0.902380
     13          1           0       -1.085094    2.563448   -2.253942
     14          1           0       -0.313920    2.648443   -0.659955
     15          6           0       -2.536362    1.137272    0.201025
     16          1           0       -2.086778    0.356714   -1.683633
     17          6           0       -2.117763    1.648746    1.445336
     18          1           0       -3.394431    0.471731    0.223914
     19          1           0       -1.178554    0.711047    1.630045
     20          1           0       -1.462502    2.514633    1.474048
     21          1           0       -2.828147    1.623680    2.265440
 ---------------------------------------------------------------------

 SCF Done:  E(RB3LYP) =  -387.287091788     A.U. after   14 cycles

 Alpha  occ. eigenvalues --  -19.12394 -10.23203 -10.21740 -10.18669 -10.18060
 Alpha  occ. eigenvalues --  -10.17854 -10.17434 -10.17270 -10.17202  -1.02973
 Alpha  occ. eigenvalues --   -0.81625  -0.78807  -0.74093  -0.72010  -0.67378
 Alpha  occ. eigenvalues --   -0.62652  -0.54638  -0.51817  -0.50439  -0.47054
 Alpha  occ. eigenvalues --   -0.46041  -0.45696  -0.43770  -0.42776  -0.42261
 Alpha  occ. eigenvalues --   -0.40561  -0.39097  -0.37860  -0.36140  -0.32550
 Alpha  occ. eigenvalues --   -0.27330  -0.26575  -0.25257  -0.22952
 Alpha virt. eigenvalues --   -0.01998   0.01430   0.02566   0.03597   0.05248
 Alpha virt. eigenvalues --    0.06212   0.07183   0.09067   0.09704   0.10138
 Alpha virt. eigenvalues --    0.11045   0.11751   0.12720   0.13050   0.14145

 Mulliken charges:
               1
     1  C   -0.107621
     2  C   -0.128804
     3  C    0.059301
     4  C   -0.321769
     5  O   -0.321532
     6  H    0.089628
     7  H    0.097215
     8  H    0.121283
     9  H    0.129661
    10  H    0.123668
    11  C    0.059842
    12  C   -0.172731
    13  H    0.097969
    14  H    0.067901
    15  C   -0.045578
    16  H    0.093565
    17  C   -0.355886
    18  H    0.097588
    19  H    0.173885
    20  H    0.123752
    21  H    0.118662
 Sum of Mulliken charges =  -0.00000

 Dipole moment (field-independent basis, Debye):
    X=             -0.1273    Y=             -0.6000    Z=              1.7129  Tot=              1.8194
 Quadrupole moment (field-independent basis, Debye-Ang):
   XX=            -55.4275   YY=            -56.4392   ZZ=            -55.8882
   XY=             -0.7629   XZ=              1.7805   YZ=              2.7338

 Normal termination of Gaussian 16 at Fri Jun 10 11:31:47 2022.
