 Gaussian 16, Revision A.03,
 Gaussian 16:  ES64L-G16RevA.03 25-Dec-2016

 ----------------------------------------------------------------------
 # Opt=(Z-matrix, MaxStep=10) B3LYP/Def2TZVP geom=allcheckpoint guess=r
 ead Field=read NoSymm freq=noraman pop=none
 ----------------------------------------------------------------------

 Structure from the checkpoint file:  "checkpoint.chk"
 ------------------
 int_zmat_initalOpt
 ------------------
 Charge =  0 Multiplicity = 1

 SCF Done:  E(RB3LYP) =  -210.249158133     A.U. after   10 cycles
 SCF Done:  E(RB3LYP) =  -210.249078815     A.U. after   10 cycles
 SCF Done:  E(RB3LYP) =  -210.249165777     A.U. after    9 cycles
 SCF Done:  E(RB3LYP) =  -210.249166813     A.U. after    7 cycles
 SCF Done:  E(RB3LYP) =  -210.249167254     A.U. after    7 cycles
 SCF Done:  E(RB3LYP) =  -210.249168301     A.U. after    8 cycles
 SCF Done:  E(RB3LYP) =  -210.249168019     A.U. after    8 cycles
 SCF Done:  E(RB3LYP) =  -210.249169211     A.U. after    7 cycles
 Optimization completed.
    -- Stationary point found.
 Normal termination of Gaussian 16 at Fri Jun 10 23:29:08 2022.

 --------------------------------------------------------------------
 #N Geom=AllCheck Guess=TCheck SCRF=Check GenChk RB3LYP/def2TZVP Freq
 --------------------------------------------------------------------

 Structure from the checkpoint file:  "checkpoint.chk"
 ------------------
 int_zmat_initalOpt
 ------------------
 Charge =  0 Multiplicity = 1

                          Input orientation:
 ---------------------------------------------------------------------
 Center     Atomic      Atomic             Coordinates (Angstroms)
 Number     Number       Type             X           Y           Z
 ---------------------------------------------------------------------
      1          1           0        0.000000    0.000000    0.000000
      2          6           0        0.000000    0.000000    1.077289
      3          6           0        1.153518    0.000000    1.906793
      4          6           0       -1.099885    0.020844    1.897818
      5          1           0        2.178902   -0.009625    1.576723
      6          6           0        0.725625    0.018608    3.209209
      7          7           0       -0.649620    0.027689    3.198513
      8          1           0       -2.152154    0.036567    1.667947
      9          1           0        1.281246    0.030383    4.131509
     10          1           0       -1.230567    0.073529    4.013584
 ---------------------------------------------------------------------

 SCF Done:  E(RB3LYP) =  -210.249169211     A.U. after    1 cycles

 Isotropic polarizability for W=    0.000000       49.92 Bohr**3.
 End of Minotr F.D. properties file   721 does not exist.

                      1                      2                      3
                      A                      A                      A
 Frequencies --    304.5895               624.1369               633.9778
 Red. masses --      1.3591                 3.2949                 2.5407
 Frc consts  --      0.0743                 0.7562                 0.6017
 IR Inten    --     67.2021                 0.1251                 0.2644

                      4                      5                      6
                      A                      A                      A
 Frequencies --    653.2054               722.0896               833.2126
 Red. masses --      1.2711                 1.2136                 1.2098
 Frc consts  --      0.3195                 0.3728                 0.4948
 IR Inten    --      7.1006               140.9697                14.1314

                      7                      8                      9
                      A                      A                      A
 Frequencies --    874.1547               905.0463               905.1471
 Red. masses --      5.0040                 3.5797                 1.3726
 Frc consts  --      2.2529                 1.7276                 0.6626
 IR Inten    --      2.2955                 0.7312                 0.2057

                     10                     11                     12
                      A                      A                      A
 Frequencies --   1035.2126              1066.0427              1086.7375
 Red. masses --      1.5038                 1.4523                 1.5660
 Frc consts  --      0.9495                 0.9725                 1.0897
 IR Inten    --     36.9593                31.1951                 3.8004

                     13                     14                     15
                      A                      A                      A
 Frequencies --   1147.7864              1170.2972              1313.8310
 Red. masses --      1.2283                 3.2065                 1.3592
 Frc consts  --      0.9534                 2.5874                 1.3823
 IR Inten    --      0.2468                 8.6151                 0.5522

                     16                     17                     18
                      A                      A                      A
 Frequencies --   1416.5568              1442.9380              1492.4207
 Red. masses --      4.1693                 2.8690                 2.6238
 Frc consts  --      4.9293                 3.5194                 3.4432
 IR Inten    --      4.9160                 5.6821                 6.3964

                     19                     20                     21
                      A                      A                      A
 Frequencies --   1578.8284              3239.2748              3248.1429
 Red. masses --      3.2174                 1.0884                 1.0917
 Frc consts  --      4.7253                 6.7290                 6.7863
 IR Inten    --      1.8752                 3.9355                 0.2376

                     22                     23                     24
                      A                      A                      A
 Frequencies --   3257.7875              3267.2975              3679.4255
 Red. masses --      1.1003                 1.1067                 1.0796
 Frc consts  --      6.8803                 6.9610                 8.6114
 IR Inten    --      3.8544                 3.5901                25.5611

 - Thermochemistry -
 -------------------
 Temperature   298.150 Kelvin.  Pressure   1.00000 Atm.
 Atom     1 has atomic number  1 and mass   1.00783

 Molecular mass:    67.04220 amu.
 Principal axes and moments of inertia in atomic units:
                           1         2         3
     Eigenvalues --   196.65881 199.40989 396.05999
           X           -0.60250   0.79806   0.00936
           Y            0.01464  -0.00068   0.99989
           Z            0.79798   0.60258  -0.01128
 This molecule is an asymmetric top.
 Rotational symmetry number  1.
 Rotational temperatures (Kelvin)      0.44043     0.43435     0.21869
 Rotational constants (GHZ):           9.17702     9.05041     4.55674
 Zero-point vibrational energy     214718.6 (Joules/Mol)
                                   51.31897 (Kcal/Mol)
 Warning -- explicit consideration of   1 degrees of freedom as
           vibrations may cause significant error
 Vibrational temperatures:    438.24   897.99   912.15   939.82  1038.93
          (Kelvin)           1198.81  1257.71  1302.16  1302.30  1489.44
                             1533.80  1563.57  1651.41  1683.80  1890.31
                             2038.11  2076.07  2147.26  2271.58  4660.59
                             4673.35  4687.23  4700.91  5293.87

 Zero-point correction=                           0.081782 (Hartree/Particle)
 Thermal correction to Energy=                    0.085949
 Thermal correction to Enthalpy=                  0.086893
 Thermal correction to Gibbs Free Energy=         0.055235
 Sum of electronic and zero-point Energies=           -210.167387
 Sum of electronic and thermal Energies=              -210.163220
 Sum of electronic and thermal Enthalpies=            -210.162276
 Sum of electronic and thermal Free Energies=         -210.193934

                     E (Thermal)             CV                S
                      KCal/Mol        Cal/Mol-Kelvin    Cal/Mol-Kelvin
 Total                   53.934             15.273             66.630
 Electronic               0.000              0.000              0.000
 Translational            0.889              2.981             38.526
 Rotational               0.889              2.981             24.255
 Vibrational             52.156              9.311              3.849
 Vibration     1          0.696              1.665              1.392

                       ! Non-Optimized Parameters !
 Normal termination of Gaussian 16 at Fri Jun 10 23:30:33 2022.
