 Gaussian 16, Revision A.03,
 Gaussian 16:  ES64L-G16RevA.03 25-Dec-2016

 ----------------------------------------------------------------------
 # Opt=(Z-matrix, MaxStep=10) B3LYP/Def2TZVP geom=allcheckpoint guess=r
 ead Field=read NoSymm freq=noraman pop=none
 ----------------------------------------------------------------------

 Structure from the checkpoint file:  "checkpoint.chk"
 ------------------
 int_zmat_initalOpt
 ------------------
 Charge =  0 Multiplicity = 1

 SCF Done:  E(RB3LYP) =  -309.743268951     A.U. after    9 cycles
 SCF Done:  E(RB3LYP) =  -309.742867002     A.U. after   10 cycles
 SCF Done:  E(RB3LYP) =  -309.743271177     A.U. after    8 cycles
 Optimization completed.
    -- Stationary point found.
 Normal termination of Gaussian 16 at Fri Jun 10 23:04:57 2022.

 --------------------------------------------------------------------
 #N Geom=AllCheck Guess=TCheck SCRF=Check GenChk RB3LYP/def2TZVP Freq
 --------------------------------------------------------------------

 Structure from the checkpoint file:  "checkpoint.chk"
 ------------------
 int_zmat_initalOpt
 ------------------
 Charge =  0 Multiplicity = 1

                          Input orientation:
 ---------------------------------------------------------------------
 Center     Atomic      Atomic             Coordinates (Angstroms)
 Number     Number       Type             X           Y           Z
 ---------------------------------------------------------------------
      1          1           0        0.000000    0.000000    0.000000
      2          6           0        0.000000    0.000000    1.082600
      3          6           0        1.217314    0.000000    1.771157
      4          6           0       -1.224286    0.000010    1.755541
      5          1           0        2.157347   -0.000013    1.232839
      6          6           0        1.132398    0.000038    3.151088
      7          6           0       -1.295463    0.000035    3.152245
      8          1           0       -2.138527    0.000005    1.175722
      9          6           0        1.946303    0.000115    4.434661
     10          6           0       -0.085028    0.000056    3.820207
     11          1           0       -2.253815    0.000050    3.657233
     12          1           0        2.559538   -0.887461    4.607452
     13          6           0        0.562197    0.000114    5.195317
     14          1           0        2.559504    0.887730    4.607370
     15          1           0        0.379125    0.887723    5.805513
     16          1           0        0.379173   -0.887456    5.805586
 ---------------------------------------------------------------------

 SCF Done:  E(RB3LYP) =  -309.743271177     A.U. after    1 cycles

 Isotropic polarizability for W=    0.000000       88.03 Bohr**3.
 End of Minotr F.D. properties file   721 does not exist.

                      1                      2                      3
                      A                      A                      A
 Frequencies --    192.6435               213.4532               401.7705
 Red. masses --      1.8864                 3.1871                 2.7599
 Frc consts  --      0.0412                 0.0856                 0.2625
 IR Inten    --      0.0003                 7.4552                 5.4931

                      4                      5                      6
                      A                      A                      A
 Frequencies --    415.3148               489.5094               551.0562
 Red. masses --      3.3973                 2.8902                 5.7712
 Frc consts  --      0.3452                 0.4080                 1.0325
 IR Inten    --      2.1545                 0.0000                 0.0533

                      7                      8                      9
                      A                      A                      A
 Frequencies --    645.7151               717.6295               735.7809
 Red. masses --      6.3071                 3.4293                 1.1377
 Frc consts  --      1.5494                 1.0405                 0.3629
 IR Inten    --      0.0471                 0.0001                37.2528

                     10                     11                     12
                      A                      A                      A
 Frequencies --    792.4232               801.6239               866.1918
 Red. masses --      3.8333                 1.1832                 4.4281
 Frc consts  --      1.4182                 0.4480                 1.9575
 IR Inten    --      0.7838                24.3791                 0.6392

                     13                     14                     15
                      A                      A                      A
 Frequencies --    885.5598               904.5642               947.0174
 Red. masses --      1.2600                 3.4445                 1.3579
 Frc consts  --      0.5822                 1.6606                 0.7175
 IR Inten    --      0.0000                 0.9438                 0.1717

                     16                     17                     18
                      A                      A                      A
 Frequencies --    995.8673              1024.6770              1048.4160
 Red. masses --      1.2870                 2.1659                 2.0448
 Frc consts  --      0.7520                 1.3399                 1.3242
 IR Inten    --      0.0000                 2.2629                 0.0000

                     19                     20                     21
                      A                      A                      A
 Frequencies --   1090.7100              1104.9566              1154.4199
 Red. masses --      1.1757                 3.0043                 1.7283
 Frc consts  --      0.8241                 2.1611                 1.3570
 IR Inten    --      0.3484                 0.2538                 1.5379

                     22                     23                     24
                      A                      A                      A
 Frequencies --   1181.5559              1183.2756              1202.7000
 Red. masses --      1.2055                 1.1382                 1.6201
 Frc consts  --      0.9916                 0.9390                 1.3807
 IR Inten    --      0.1068                 0.0000                 0.4140

                     25                     26                     27
                      A                      A                      A
 Frequencies --   1222.5834              1231.8372              1311.4237
 Red. masses --      2.5309                 1.4816                 1.5513
 Frc consts  --      2.2288                 1.3246                 1.5719
 IR Inten    --      2.7598                 5.6102                 2.0114

                     28                     29                     30
                      A                      A                      A
 Frequencies --   1364.9299              1466.9100              1480.6232
 Red. masses --      4.2573                 1.0855                 1.3354
 Frc consts  --      4.6731                 1.3763                 1.7249
 IR Inten    --      2.1737                 0.4454                 2.1217

                     31                     32                     33
                      A                      A                      A
 Frequencies --   1497.3318              1500.8357              1635.6653
 Red. masses --      2.2486                 1.9239                 6.5844
 Frc consts  --      2.9702                 2.5532                10.3790
 IR Inten    --      3.7042                15.2409                 0.0855

                     34                     35                     36
                      A                      A                      A
 Frequencies --   1645.2838              3029.5888              3035.3789
 Red. masses --      6.6169                 1.0554                 1.0577
 Frc consts  --     10.5533                 5.7072                 5.7419
 IR Inten    --      0.1768                51.8168               107.0139

                     37                     38                     39
                      A                      A                      A
 Frequencies --   3062.0955              3078.5003              3168.7682
 Red. masses --      1.1084                 1.1069                 1.0871
 Frc consts  --      6.1234                 6.1807                 6.4314
 IR Inten    --      0.0000                56.7963                 9.1445

                     40                     41                     42
                      A                      A                      A
 Frequencies --   3172.9762              3184.1802              3195.9947
 Red. masses --      1.0892                 1.0925                 1.0961
 Frc consts  --      6.4607                 6.5265                 6.5963
 IR Inten    --      0.3154                17.3311                 6.7752

 - Thermochemistry -
 -------------------
 Temperature   298.150 Kelvin.  Pressure   1.00000 Atm.
 Atom     1 has atomic number  1 and mass   1.00783

 Molecular mass:   104.06260 amu.
 Principal axes and moments of inertia in atomic units:
                           1         2         3
     Eigenvalues --   402.69618 862.836391242.84958
           X            0.48164   0.87637  -0.00001
           Y            0.00003  -0.00001   1.00000
           Z            0.87637  -0.48164  -0.00003
 This molecule is an asymmetric top.
 Rotational symmetry number  1.
 Rotational temperatures (Kelvin)      0.21509     0.10038     0.06969
 Rotational constants (GHZ):           4.48164     2.09164     1.45210
 Zero-point vibrational energy     351891.9 (Joules/Mol)
                                   84.10419 (Kcal/Mol)
 Warning -- explicit consideration of   6 degrees of freedom as
           vibrations may cause significant error
 Vibrational temperatures:    277.17   307.11   578.06   597.55   704.29
          (Kelvin)            792.85   929.04  1032.51  1058.62  1140.12
                             1153.36  1246.26  1274.12  1301.47  1362.55
                             1432.83  1474.28  1508.44  1569.29  1589.79
                             1660.95  1700.00  1702.47  1730.42  1759.02
                             1772.34  1886.85  1963.83  2110.56  2130.29
                             2154.33  2159.37  2353.36  2367.20  4358.90
                             4367.23  4405.67  4429.28  4559.15  4565.21
                             4581.33  4598.32

 Zero-point correction=                           0.134029 (Hartree/Particle)
 Thermal correction to Energy=                    0.140013
 Thermal correction to Enthalpy=                  0.140957
 Thermal correction to Gibbs Free Energy=         0.104202
 Sum of electronic and zero-point Energies=           -309.609243
 Sum of electronic and thermal Energies=              -309.603258
 Sum of electronic and thermal Enthalpies=            -309.602314
 Sum of electronic and thermal Free Energies=         -309.639069

                     E (Thermal)             CV                S
                      KCal/Mol        Cal/Mol-Kelvin    Cal/Mol-Kelvin
 Total                   87.860             24.293             77.359
 Electronic               0.000              0.000              0.000
 Translational            0.889              2.981             39.837
 Rotational               0.889              2.981             27.559
 Vibrational             86.082             18.332              9.963
 Vibration     1          0.635              1.850              2.202
 Vibration     2          0.644              1.820              2.014
 Vibration     3          0.767              1.466              0.956
 Vibration     4          0.779              1.437              0.908
 Vibration     5          0.845              1.273              0.685
 Vibration     6          0.906              1.137              0.542

 Optimization completed.
    -- Stationary point found.
 Normal termination of Gaussian 16 at Fri Jun 10 23:12:33 2022.
