 Gaussian 16, Revision A.03,
 Gaussian 16:  ES64L-G16RevA.03 25-Dec-2016

 ----------------------------------------------------------------------
 # Opt=(Z-matrix, MaxStep=10) B3LYP/Def2TZVP geom=allcheckpoint guess=r
 ead Field=read NoSymm freq=noraman pop=none
 ----------------------------------------------------------------------

 Structure from the checkpoint file:  "checkpoint.chk"
 ------------------
 int_zmat_initalOpt
 ------------------
 Charge =  0 Multiplicity = 1

 SCF Done:  E(RB3LYP) =  -312.117324213     A.U. after   10 cycles
 SCF Done:  E(RB3LYP) =  -312.117335084     A.U. after    8 cycles
 SCF Done:  E(RB3LYP) =  -312.117336705     A.U. after    7 cycles
 Optimization completed.
    -- Stationary point found.
 Normal termination of Gaussian 16 at Fri Jun 10 03:21:56 2022.

 --------------------------------------------------------------------
 #N Geom=AllCheck Guess=TCheck SCRF=Check GenChk RB3LYP/def2TZVP Freq
 --------------------------------------------------------------------

 Structure from the checkpoint file:  "checkpoint.chk"
 ------------------
 int_zmat_initalOpt
 ------------------
 Charge =  0 Multiplicity = 1

                          Input orientation:
 ---------------------------------------------------------------------
 Center     Atomic      Atomic             Coordinates (Angstroms)
 Number     Number       Type             X           Y           Z
 ---------------------------------------------------------------------
      1          6           0        0.000000    0.000000    0.000000
      2          6           0        0.000000    0.000000    1.546921
      3          6           0        1.544281    0.000000    0.030633
      4          1           0       -0.393360    0.937595   -0.392541
      5          1           0       -0.491368   -0.829331   -0.512332
      6          6           0        1.465461    0.506932    1.531841
      7          6           0        2.351117    0.744517   -0.978025
      8          1           0       -0.061657   -1.009447    1.956745
      9          1           0       -0.742321    0.618265    2.047523
     10          1           0        1.905854   -1.034263    0.066110
     11          6           0        1.883880    1.376855   -2.048226
     12          6           0        1.690666    1.976471    1.714807
     13          1           0        3.424172    0.755165   -0.797474
     14          1           0        2.146142   -0.030401    2.198180
     15          6           0        0.819270    2.880405    2.144333
     16          1           0        2.545293    1.899383   -2.727382
     17          1           0        0.825157    1.414907   -2.275674
     18          1           0        2.698629    2.309372    1.480720
     19          1           0       -0.200537    2.631335    2.410116
     20          1           0        1.104478    3.917747    2.260236
 ---------------------------------------------------------------------

 SCF Done:  E(RB3LYP) =  -312.117336705     A.U. after    1 cycles

 Isotropic polarizability for W=    0.000000       92.33 Bohr**3.
 End of Minotr F.D. properties file   721 does not exist.

                      1                      2                      3
                      A                      A                      A
 Frequencies --     62.3833                93.3949               112.7642
 Red. masses --      2.9128                 2.1720                 2.3505
 Frc consts  --      0.0067                 0.0112                 0.0176
 IR Inten    --      0.1021                 0.0600                 0.0398

                      4                      5                      6
                      A                      A                      A
 Frequencies --    206.0662               250.3404               305.3921
 Red. masses --      2.1405                 2.4442                 2.4168
 Frc consts  --      0.0536                 0.0902                 0.1328
 IR Inten    --      0.0454                 0.4989                 0.2279

                      7                      8                      9
                      A                      A                      A
 Frequencies --    397.6890               493.7682               533.0061
 Red. masses --      2.0189                 2.1519                 2.1252
 Frc consts  --      0.1881                 0.3091                 0.3557
 IR Inten    --      3.0544                 2.8345                 0.9548

                     10                     11                     12
                      A                      A                      A
 Frequencies --    602.2492               642.1386               734.3958
 Red. masses --      1.9727                 2.0225                 1.5114
 Frc consts  --      0.4216                 0.4914                 0.4803
 IR Inten    --      3.2636                 5.4216                 2.4303

                     13                     14                     15
                      A                      A                      A
 Frequencies --    770.4734               814.0944               910.8204
 Red. masses --      1.8071                 2.2031                 2.1761
 Frc consts  --      0.6320                 0.8603                 1.0637
 IR Inten    --      4.2352                 3.0294                 4.8553

                     16                     17                     18
                      A                      A                      A
 Frequencies --    935.7397               945.2451               946.4236
 Red. masses --      2.6247                 2.0239                 1.5052
 Frc consts  --      1.3541                 1.0654                 0.7944
 IR Inten    --      1.4374                15.2829                32.6253

                     19                     20                     21
                      A                      A                      A
 Frequencies --    962.5776               979.2809              1025.2026
 Red. masses --      1.3482                 1.6965                 1.2105
 Frc consts  --      0.7360                 0.9586                 0.7496
 IR Inten    --     39.5776                 0.3446                 1.5735

                     22                     23                     24
                      A                      A                      A
 Frequencies --   1031.7621              1037.2798              1061.4453
 Red. masses --      1.1512                 1.1355                 1.8602
 Frc consts  --      0.7220                 0.7198                 1.2348
 IR Inten    --      9.1021                 7.6378                 3.0920

                     25                     26                     27
                      A                      A                      A
 Frequencies --   1083.8318              1121.1703              1160.3098
 Red. masses --      1.7765                 1.5390                 1.8122
 Frc consts  --      1.2296                 1.1398                 1.4375
 IR Inten    --      8.2521                 5.3803                 0.4786

                     28                     29                     30
                      A                      A                      A
 Frequencies --   1204.8401              1224.2164              1256.5404
 Red. masses --      1.3428                 1.2811                 1.3595
 Frc consts  --      1.1485                 1.1312                 1.2647
 IR Inten    --      3.1666                 0.9592                 0.3441

                     31                     32                     33
                      A                      A                      A
 Frequencies --   1268.1430              1273.4261              1333.1139
 Red. masses --      1.3325                 1.4572                 1.2998
 Frc consts  --      1.2626                 1.3922                 1.3610
 IR Inten    --      2.8902                 0.0349                 0.4224

                     34                     35                     36
                      A                      A                      A
 Frequencies --   1341.8994              1359.2404              1378.9363
 Red. masses --      1.2902                 1.4310                 1.6632
 Frc consts  --      1.3689                 1.5577                 1.8633
 IR Inten    --      0.1319                 1.9610                 4.4498

                     37                     38                     39
                      A                      A                      A
 Frequencies --   1456.7676              1457.6022              1486.5184
 Red. masses --      1.1974                 1.2073                 1.0946
 Frc consts  --      1.4971                 1.5113                 1.4251
 IR Inten    --      1.8150                 6.5830                 2.3460

                     40                     41                     42
                      A                      A                      A
 Frequencies --   1506.1966              1701.7079              1706.1239
 Red. masses --      1.1270                 4.5494                 4.4878
 Frc consts  --      1.5064                 7.7620                 7.6966
 IR Inten    --      4.7811                18.3308                11.0964

                     43                     44                     45
                      A                      A                      A
 Frequencies --   2996.4250              3028.0286              3045.4187
 Red. masses --      1.0828                 1.0838                 1.0617
 Frc consts  --      5.7282                 5.8549                 5.8018
 IR Inten    --     24.6627                35.9132                54.2906

                     46                     47                     48
                      A                      A                      A
 Frequencies --   3058.4198              3097.0054              3115.1739
 Red. masses --      1.0662                 1.1010                 1.0871
 Frc consts  --      5.8762                 6.2220                 6.2154
 IR Inten    --     50.4519                22.2473                22.0447

                     49                     50                     51
                      A                      A                      A
 Frequencies --   3116.0520              3129.4070              3140.1415
 Red. masses --      1.1000                 1.0843                 1.0627
 Frc consts  --      6.2930                 6.2564                 6.1738
 IR Inten    --     23.1219                14.7808                 5.7640

                     52                     53                     54
                      A                      A                      A
 Frequencies --   3148.7003              3217.8081              3225.6857
 Red. masses --      1.0637                 1.1154                 1.1151
 Frc consts  --      6.2134                 6.8044                 6.8364
 IR Inten    --      4.9111                13.0412                 8.0771

 - Thermochemistry -
 -------------------
 Temperature   298.150 Kelvin.  Pressure   1.00000 Atm.
 Atom     1 has atomic number  6 and mass  12.00000

 Molecular mass:   108.09390 amu.
 Principal axes and moments of inertia in atomic units:
                           1         2         3
     Eigenvalues --   644.677171064.875001370.39511
           X           -0.28310   0.51452   0.80940
           Y            0.24001   0.85508  -0.45960
           Z            0.92857  -0.06415   0.36556
 This molecule is an asymmetric top.
 Rotational symmetry number  1.
 Warning -- assumption of classical behavior for rotation
           may cause significant error
 Rotational temperatures (Kelvin)      0.13435     0.08134     0.06320
 Rotational constants (GHZ):           2.79945     1.69479     1.31695
 Zero-point vibrational energy     463509.8 (Joules/Mol)
                                  110.78150 (Kcal/Mol)
 Warning -- explicit consideration of  10 degrees of freedom as
           vibrations may cause significant error
 Vibrational temperatures:     89.76   134.37   162.24   296.48   360.18
          (Kelvin)            439.39   572.19   710.42   766.88   866.50
                              923.89  1056.63  1108.54  1171.30  1310.47
                             1346.32  1360.00  1361.69  1384.93  1408.97
                             1475.04  1484.48  1492.41  1527.18  1559.39
                             1613.11  1669.43  1733.50  1761.37  1807.88
                             1824.57  1832.18  1918.05  1930.69  1955.64
                             1983.98  2095.96  2097.16  2138.77  2167.08
                             2448.38  2454.73  4311.19  4356.66  4381.68
                             4400.38  4455.90  4482.04  4483.30  4502.52
                             4517.96  4530.28  4629.71  4641.04

 Zero-point correction=                           0.176542 (Hartree/Particle)
 Thermal correction to Energy=                    0.184992
 Thermal correction to Enthalpy=                  0.185936
 Thermal correction to Gibbs Free Energy=         0.143208
 Sum of electronic and zero-point Energies=           -311.940795
 Sum of electronic and thermal Energies=              -311.932345
 Sum of electronic and thermal Enthalpies=            -311.931401
 Sum of electronic and thermal Free Energies=         -311.974129

                     E (Thermal)             CV                S
                      KCal/Mol        Cal/Mol-Kelvin    Cal/Mol-Kelvin
 Total                  116.084             31.623             89.929
 Electronic               0.000              0.000              0.000
 Translational            0.889              2.981             39.950
 Rotational               0.889              2.981             28.333
 Vibrational            114.307             25.662             21.646
 Vibration     1          0.597              1.972              4.380
 Vibration     2          0.602              1.954              3.588
 Vibration     3          0.607              1.939              3.221
 Vibration     4          0.641              1.831              2.078
 Vibration     5          0.663              1.762              1.728
 Vibration     6          0.696              1.663              1.387
 Vibration     7          0.764              1.475              0.971
 Vibration     8          0.849              1.264              0.674
 Vibration     9          0.888              1.177              0.581
 Vibration    10          0.961              1.027              0.446

                       ! Non-Optimized Parameters !
 Normal termination of Gaussian 16 at Fri Jun 10 03:30:29 2022.
