 Gaussian 16, Revision A.03,
 Gaussian 16:  ES64L-G16RevA.03 25-Dec-2016

 ----------------------------------------------------------------------
 # Opt=(Z-matrix, MaxStep=10) B3LYP/Def2TZVP geom=allcheckpoint guess=r
 ead Field=read NoSymm freq=noraman pop=none
 ----------------------------------------------------------------------

 Structure from the checkpoint file:  "checkpoint.chk"
 ------------------
 int_zmat_initalOpt
 ------------------
 Charge =  0 Multiplicity = 1

 SCF Done:  E(RB3LYP) =  -269.425863404     A.U. after   10 cycles
 SCF Done:  E(RB3LYP) =  -269.425793145     A.U. after   11 cycles
 SCF Done:  E(RB3LYP) =  -269.425879915     A.U. after    9 cycles
 SCF Done:  E(RB3LYP) =  -269.425887038     A.U. after    9 cycles
 SCF Done:  E(RB3LYP) =  -269.425890519     A.U. after    9 cycles
 SCF Done:  E(RB3LYP) =  -269.425893024     A.U. after    8 cycles
 SCF Done:  E(RB3LYP) =  -269.425894247     A.U. after    8 cycles
 SCF Done:  E(RB3LYP) =  -269.425894786     A.U. after    7 cycles
 SCF Done:  E(RB3LYP) =  -269.425894959     A.U. after    7 cycles
 Optimization completed.
    -- Stationary point found.
 Normal termination of Gaussian 16 at Fri Jun 10 03:41:57 2022.

 --------------------------------------------------------------------
 #N Geom=AllCheck Guess=TCheck SCRF=Check GenChk RB3LYP/def2TZVP Freq
 --------------------------------------------------------------------

 Structure from the checkpoint file:  "checkpoint.chk"
 ------------------
 int_zmat_initalOpt
 ------------------
 Charge =  0 Multiplicity = 1

                          Input orientation:
 ---------------------------------------------------------------------
 Center     Atomic      Atomic             Coordinates (Angstroms)
 Number     Number       Type             X           Y           Z
 ---------------------------------------------------------------------
      1          1           0        0.000000    0.000000    0.000000
      2          6           0        0.000000    0.000000    1.082150
      3          6           0        1.127560    0.000000    1.795649
      4          6           0       -1.321054   -0.080549    1.787906
      5          1           0        2.094626    0.041242    1.311683
      6          6           0        1.050461    0.038088    3.249165
      7          8           0       -1.284170    0.467316    3.128390
      8          1           0       -2.094130    0.482837    1.266857
      9          1           0       -1.662139   -1.127644    1.867323
     10          1           0        1.939720   -0.017850    3.860092
     11          6           0       -0.130637    0.309422    3.818990
     12          1           0       -0.263347    0.519650    4.873282
 ---------------------------------------------------------------------

 SCF Done:  E(RB3LYP) =  -269.425894959     A.U. after    1 cycles

 Isotropic polarizability for W=    0.000000       59.64 Bohr**3.
 End of Minotr F.D. properties file   721 does not exist.

                      1                      2                      3
                      A                      A                      A
 Frequencies --    122.9299               328.9384               505.6563
 Red. masses --      2.2810                 2.6795                 3.5889
 Frc consts  --      0.0203                 0.1708                 0.5407
 IR Inten    --      1.7082                10.6276                13.8871

                      4                      5                      6
                      A                      A                      A
 Frequencies --    566.3916               621.2541               723.7300
 Red. masses --      2.9798                 5.2096                 1.4459
 Frc consts  --      0.5632                 1.1847                 0.4462
 IR Inten    --     13.0507                 1.1060                56.8664

                      7                      8                      9
                      A                      A                      A
 Frequencies --    770.6923               853.9482               908.4525
 Red. masses --      1.3809                 4.2233                 1.3375
 Frc consts  --      0.4832                 1.8145                 0.6504
 IR Inten    --      6.7196                15.9400                 3.7431

                     10                     11                     12
                      A                      A                      A
 Frequencies --    956.3942               975.5961               983.3686
 Red. masses --      2.8340                 2.4356                 2.5067
 Frc consts  --      1.5273                 1.3658                 1.4282
 IR Inten    --     10.9216                16.6585                 6.1992

                     13                     14                     15
                      A                      A                      A
 Frequencies --    997.9281              1075.2337              1097.5044
 Red. masses --      1.5018                 2.2526                 1.9935
 Frc consts  --      0.8812                 1.5344                 1.4148
 IR Inten    --      3.2125                 4.9545                64.3383

                     16                     17                     18
                      A                      A                      A
 Frequencies --   1198.5014              1247.3562              1275.1940
 Red. masses --      1.0988                 1.3761                 1.1785
 Frc consts  --      0.9299                 1.2615                 1.1291
 IR Inten    --      0.5726                36.8908                17.3232

                     19                     20                     21
                      A                      A                      A
 Frequencies --   1371.8970              1418.5513              1448.9914
 Red. masses --      1.2100                 1.5514                 1.7303
 Frc consts  --      1.3418                 1.8393                 2.1404
 IR Inten    --      0.4143                10.6634                 6.1011

                     22                     23                     24
                      A                      A                      A
 Frequencies --   1503.1234              1632.7557              1701.2299
 Red. masses --      1.1061                 5.9762                 5.4868
 Frc consts  --      1.4724                 9.3868                 9.3561
 IR Inten    --      1.0100                38.0387                28.6162

                     25                     26                     27
                      A                      A                      A
 Frequencies --   2897.7001              3094.7319              3173.5608
 Red. masses --      1.0744                 1.0877                 1.0879
 Frc consts  --      5.3152                 6.1376                 6.4558
 IR Inten    --    145.9191                14.1706                11.9910

                     28                     29                     30
                      A                      A                      A
 Frequencies --   3183.6976              3199.6953              3211.2269
 Red. masses --      1.0866                 1.0970                 1.0971
 Frc consts  --      6.4893                 6.6173                 6.6657
 IR Inten    --      5.0946                 5.1493                14.6248

 - Thermochemistry -
 -------------------
 Temperature   298.150 Kelvin.  Pressure   1.00000 Atm.
 Atom     1 has atomic number  1 and mass   1.00783

 Molecular mass:    82.04186 amu.
 Principal axes and moments of inertia in atomic units:
                           1         2         3
     Eigenvalues --   324.82417 336.86616 639.97415
           X            0.82150   0.56622   0.06735
           Y           -0.13487   0.07818   0.98777
           Z           -0.55403   0.82054  -0.14059
 This molecule is an asymmetric top.
 Rotational symmetry number  1.
 Rotational temperatures (Kelvin)      0.26665     0.25712     0.13534
 Rotational constants (GHZ):           5.55606     5.35744     2.82002
 Zero-point vibrational energy     257473.6 (Joules/Mol)
                                   61.53768 (Kcal/Mol)
 Warning -- explicit consideration of   4 degrees of freedom as
           vibrations may cause significant error
 Vibrational temperatures:    176.87   473.27   727.53   814.91   893.85
          (Kelvin)           1041.29  1108.85  1228.64  1307.06  1376.04
                             1403.67  1414.85  1435.80  1547.02  1579.06
                             1724.38  1794.67  1834.72  1973.85  2040.98
                             2084.78  2162.66  2349.17  2447.69  4169.14
                             4452.63  4566.05  4580.63  4603.65  4620.24

 Zero-point correction=                           0.098067 (Hartree/Particle)
 Thermal correction to Energy=                    0.103119
 Thermal correction to Enthalpy=                  0.104063
 Thermal correction to Gibbs Free Energy=         0.069708
 Sum of electronic and zero-point Energies=           -269.327828
 Sum of electronic and thermal Energies=              -269.322776
 Sum of electronic and thermal Enthalpies=            -269.321832
 Sum of electronic and thermal Free Energies=         -269.356186

                     E (Thermal)             CV                S
                      KCal/Mol        Cal/Mol-Kelvin    Cal/Mol-Kelvin
 Total                   64.708             18.574             72.305
 Electronic               0.000              0.000              0.000
 Translational            0.889              2.981             39.128
 Rotational               0.889              2.981             25.752
 Vibrational             62.930             12.612              7.425
 Vibration     1          0.610              1.930              3.054
 Vibration     2          0.712              1.618              1.265
 Vibration     3          0.861              1.237              0.644
 Vibration     4          0.922              1.104              0.511

                       ! Non-Optimized Parameters !
 Normal termination of Gaussian 16 at Fri Jun 10 03:45:15 2022.
