 Gaussian 16, Revision A.03,
 Gaussian 16:  ES64L-G16RevA.03 25-Dec-2016

 ----------------------------------------------------------------------
 # Opt=(Z-matrix, MaxStep=10) B3LYP/Def2TZVP geom=allcheckpoint guess=r
 ead Field=read NoSymm freq=noraman pop=none
 ----------------------------------------------------------------------

 Structure from the checkpoint file:  "checkpoint.chk"
 ------------------
 int_zmat_initalOpt
 ------------------
 Charge =  0 Multiplicity = 1

 SCF Done:  E(RB3LYP) =  -309.743267461     A.U. after    9 cycles
 SCF Done:  E(RB3LYP) =  -309.743270247     A.U. after    7 cycles
 Optimization completed.
    -- Stationary point found.
 Normal termination of Gaussian 16 at Fri Jun 10 03:19:12 2022.

 --------------------------------------------------------------------
 #N Geom=AllCheck Guess=TCheck SCRF=Check GenChk RB3LYP/def2TZVP Freq
 --------------------------------------------------------------------

 Structure from the checkpoint file:  "checkpoint.chk"
 ------------------
 int_zmat_initalOpt
 ------------------
 Charge =  0 Multiplicity = 1

                          Input orientation:
 ---------------------------------------------------------------------
 Center     Atomic      Atomic             Coordinates (Angstroms)
 Number     Number       Type             X           Y           Z
 ---------------------------------------------------------------------
      1          6           0        0.000000    0.000000    0.000000
      2          6           0        0.000000    0.000000    1.382517
      3          6           0        1.174093    0.000000   -0.742571
      4          6           0       -0.891132    0.000002   -1.231189
      5          1           0       -0.905322   -0.000000    1.977374
      6          6           0        1.257214    0.000001    1.995138
      7          6           0        2.423221    0.000002   -0.150080
      8          6           0        0.443581   -0.000004   -2.075351
      9          1           0       -1.513869   -0.887577   -1.365806
     10          1           0       -1.513864    0.887585   -1.365808
     11          6           0        2.437933    0.000002    1.248381
     12          1           0        1.323018    0.000001    3.075737
     13          1           0        3.348676    0.000001   -0.713105
     14          1           0        0.588792    0.887576   -2.695701
     15          1           0        0.588788   -0.887587   -2.695695
     16          1           0        3.386044    0.000002    1.770982
 ---------------------------------------------------------------------

 SCF Done:  E(RB3LYP) =  -309.743270247     A.U. after    1 cycles

 Isotropic polarizability for W=    0.000000       88.03 Bohr**3.
 End of Minotr F.D. properties file   721 does not exist.

                      1                      2                      3
                      A                      A                      A
 Frequencies --    192.7372               213.3226               401.7616
 Red. masses --      1.8861                 3.1865                 2.7601
 Frc consts  --      0.0413                 0.0854                 0.2625
 IR Inten    --      0.0003                 7.4593                 5.4866

                      4                      5                      6
                      A                      A                      A
 Frequencies --    415.2470               489.5178               551.0060
 Red. masses --      3.3972                 2.8902                 5.7715
 Frc consts  --      0.3451                 0.4081                 1.0324
 IR Inten    --      2.1546                 0.0000                 0.0535

                      7                      8                      9
                      A                      A                      A
 Frequencies --    645.6765               717.6204               735.7745
 Red. masses --      6.3077                 3.4287                 1.1376
 Frc consts  --      1.5493                 1.0403                 0.3629
 IR Inten    --      0.0469                 0.0000                37.2150

                     10                     11                     12
                      A                      A                      A
 Frequencies --    792.4034               801.6132               866.1794
 Red. masses --      3.8334                 1.1833                 4.4286
 Frc consts  --      1.4182                 0.4480                 1.9576
 IR Inten    --      0.7843                24.4152                 0.6373

                     13                     14                     15
                      A                      A                      A
 Frequencies --    885.5908               904.6803               947.0464
 Red. masses --      1.2600                 3.4416                 1.3579
 Frc consts  --      0.5822                 1.6596                 0.7175
 IR Inten    --      0.0000                 0.9418                 0.1721

                     16                     17                     18
                      A                      A                      A
 Frequencies --    995.8802              1024.6049              1048.3960
 Red. masses --      1.2869                 2.1669                 2.0450
 Frc consts  --      0.7520                 1.3403                 1.3243
 IR Inten    --      0.0000                 2.2567                 0.0000

                     19                     20                     21
                      A                      A                      A
 Frequencies --   1090.7040              1104.9105              1154.4601
 Red. masses --      1.1757                 3.0051                 1.7283
 Frc consts  --      0.8241                 2.1615                 1.3572
 IR Inten    --      0.3496                 0.2537                 1.5393

                     22                     23                     24
                      A                      A                      A
 Frequencies --   1181.5119              1183.3549              1202.7523
 Red. masses --      1.2053                 1.1383                 1.6231
 Frc consts  --      0.9913                 0.9392                 1.3834
 IR Inten    --      0.1058                 0.0000                 0.4100

                     25                     26                     27
                      A                      A                      A
 Frequencies --   1222.5768              1231.8953              1311.4696
 Red. masses --      2.5262                 1.4816                 1.5509
 Frc consts  --      2.2247                 1.3247                 1.5717
 IR Inten    --      2.7622                 5.6136                 2.0040

                     28                     29                     30
                      A                      A                      A
 Frequencies --   1364.9008              1466.9186              1480.5841
 Red. masses --      4.2592                 1.0855                 1.3362
 Frc consts  --      4.6750                 1.3762                 1.7258
 IR Inten    --      2.1721                 0.4480                 2.1425

                     31                     32                     33
                      A                      A                      A
 Frequencies --   1497.3033              1500.7562              1635.6383
 Red. masses --      2.2488                 1.9212                 6.5848
 Frc consts  --      2.9705                 2.5494                10.3793
 IR Inten    --      3.7004                15.2439                 0.0853

                     34                     35                     36
                      A                      A                      A
 Frequencies --   1645.2524              3029.5653              3035.3550
 Red. masses --      6.6165                 1.0554                 1.0578
 Frc consts  --     10.5521                 5.7072                 5.7419
 IR Inten    --      0.1763                51.8233               107.0290

                     37                     38                     39
                      A                      A                      A
 Frequencies --   3062.0513              3078.4524              3168.7278
 Red. masses --      1.1084                 1.1069                 1.0871
 Frc consts  --      6.1232                 6.1805                 6.4312
 IR Inten    --      0.0000                56.8100                 9.2127

                     40                     41                     42
                      A                      A                      A
 Frequencies --   3172.9174              3184.1574              3195.9808
 Red. masses --      1.0892                 1.0925                 1.0961
 Frc consts  --      6.4604                 6.5263                 6.5962
 IR Inten    --      0.3124                17.2798                 6.7781

 - Thermochemistry -
 -------------------
 Temperature   298.150 Kelvin.  Pressure   1.00000 Atm.
 Atom     1 has atomic number  6 and mass  12.00000

 Molecular mass:   104.06260 amu.
 Principal axes and moments of inertia in atomic units:
                           1         2         3
     Eigenvalues --   402.68304 862.859551242.86020
           X            0.53453   0.84515  -0.00000
           Y            0.00000  -0.00000   1.00000
           Z            0.84515  -0.53453  -0.00000
 This molecule is an asymmetric top.
 Rotational symmetry number  1.
 Rotational temperatures (Kelvin)      0.21509     0.10038     0.06969
 Rotational constants (GHZ):           4.48179     2.09158     1.45209
 Zero-point vibrational energy     351889.0 (Joules/Mol)
                                   84.10350 (Kcal/Mol)
 Warning -- explicit consideration of   6 degrees of freedom as
           vibrations may cause significant error
 Vibrational temperatures:    277.31   306.92   578.05   597.45   704.31
          (Kelvin)            792.77   928.98  1032.50  1058.62  1140.09
                             1153.34  1246.24  1274.17  1301.63  1362.59
                             1432.85  1474.18  1508.41  1569.28  1589.72
                             1661.01  1699.93  1702.58  1730.49  1759.02
                             1772.42  1886.91  1963.79  2110.57  2130.23
                             2154.29  2159.25  2353.32  2367.15  4358.87
                             4367.20  4405.61  4429.21  4559.09  4565.12
                             4581.29  4598.30

 Zero-point correction=                           0.134027 (Hartree/Particle)
 Thermal correction to Energy=                    0.140012
 Thermal correction to Enthalpy=                  0.140957
 Thermal correction to Gibbs Free Energy=         0.104201
 Sum of electronic and zero-point Energies=           -309.609243
 Sum of electronic and thermal Energies=              -309.603258
 Sum of electronic and thermal Enthalpies=            -309.602314
 Sum of electronic and thermal Free Energies=         -309.639070

                     E (Thermal)             CV                S
                      KCal/Mol        Cal/Mol-Kelvin    Cal/Mol-Kelvin
 Total                   87.859             24.294             77.359
 Electronic               0.000              0.000              0.000
 Translational            0.889              2.981             39.837
 Rotational               0.889              2.981             27.559
 Vibrational             86.082             18.332              9.963
 Vibration     1          0.635              1.850              2.201
 Vibration     2          0.644              1.821              2.015
 Vibration     3          0.767              1.466              0.956
 Vibration     4          0.779              1.437              0.908
 Vibration     5          0.845              1.273              0.685
 Vibration     6          0.906              1.137              0.542

 Optimization completed.
    -- Stationary point found.
 Normal termination of Gaussian 16 at Fri Jun 10 03:25:23 2022.
