 Gaussian 16, Revision A.03,
 Gaussian 16:  ES64L-G16RevA.03 25-Dec-2016

 --------------------------
 # sp B3LYP/Def2TZVP NoSymm
 --------------------------

 ----------------------------
 int_initalOpt_zmat_AlignedSp
 ----------------------------
 Symbolic Z-matrix:
 Charge =  0 Multiplicity = 1

                          Input orientation:
 ---------------------------------------------------------------------
 Center     Atomic      Atomic             Coordinates (Angstroms)
 Number     Number       Type             X           Y           Z
 ---------------------------------------------------------------------
      1          6           0        0.000000    0.000000    0.000000
      2          6           0        0.000000    0.000000    1.382613
      3          6           0        1.175276    0.000000   -0.742184
      4          6           0       -0.889394    0.000004   -1.231844
      5          1           0       -0.907297    0.000000    1.974639
      6          6           0        1.256780    0.000001    1.996712
      7          6           0        2.423668    0.000002   -0.147928
      8          6           0        0.445291   -0.000005   -2.074693
      9          1           0       -1.511753   -0.886576   -1.365831
     10          1           0       -1.511746    0.886585   -1.365834
     11          6           0        2.437979    0.000002    1.250788
     12          1           0        1.320972    0.000003    3.078004
     13          1           0        3.348183    0.000000   -0.712687
     14          1           0        0.591805    0.886574   -2.694223
     15          1           0        0.591802   -0.886588   -2.694216
     16          1           0        3.386706    0.000002    1.773497
 ---------------------------------------------------------------------

 SCF Done:  E(RB3LYP) =  -309.742817669     A.U. after   13 cycles

 Alpha  occ. eigenvalues --  -10.18047 -10.18032 -10.17443 -10.17443 -10.17337
 Alpha  occ. eigenvalues --  -10.17285 -10.17212 -10.17159  -0.88093  -0.80978
 Alpha  occ. eigenvalues --   -0.74867  -0.68798  -0.64368  -0.59900  -0.56170
 Alpha  occ. eigenvalues --   -0.51352  -0.46836  -0.46672  -0.44725  -0.40431
 Alpha  occ. eigenvalues --   -0.40081  -0.37261  -0.35866  -0.35261  -0.32729
 Alpha  occ. eigenvalues --   -0.31683  -0.25426  -0.24295
 Alpha virt. eigenvalues --   -0.01662  -0.00276   0.04513   0.05605   0.06179
 Alpha virt. eigenvalues --    0.08597   0.09568   0.10093   0.12084   0.12147
 Alpha virt. eigenvalues --    0.12690   0.14542   0.14819   0.16993   0.17004

 Mulliken charges:
               1
     1  C    0.021474
     2  C   -0.218378
     3  C    0.021493
     4  C   -0.106716
     5  H    0.103792
     6  C   -0.088437
     7  C   -0.218383
     8  C   -0.106721
     9  H    0.091126
    10  H    0.091127
    11  C   -0.088418
    12  H    0.105999
    13  H    0.103790
    14  H    0.091125
    15  H    0.091126
    16  H    0.106001
 Sum of Mulliken charges =  -0.00000

 Dipole moment (field-independent basis, Debye):
    X=             -0.2625    Y=             -0.0000    Z=             -0.4156  Tot=              0.4916
 Quadrupole moment (field-independent basis, Debye-Ang):
   XX=            -44.8969   YY=            -50.3168   ZZ=            -44.2807
   XY=             -0.0000   XZ=             -0.1476   YZ=              0.0000

 Normal termination of Gaussian 16 at Fri Jun 10 02:28:12 2022.
