 Gaussian 16, Revision A.03,
 Gaussian 16:  ES64L-G16RevA.03 25-Dec-2016

 --------------------------------------------------------------------
 # Opt=(TS, CalcFC, noeigentest) B3LYP/Def2TZVP freq=noraman pop=none
 --------------------------------------------------------------------

 ------------
 ts_initalOpt
 ------------
 Symbolic Z-matrix:
 Charge =  0 Multiplicity = 1

 SCF Done:  E(RB3LYP) =  -269.391777563     A.U. after   15 cycles
 Optimization completed.
    -- Stationary point found.
 Normal termination of Gaussian 16 at Fri Jun 10 22:00:52 2022.

 --------------------------------------------------------------------
 #N Geom=AllCheck Guess=TCheck SCRF=Check GenChk RB3LYP/def2TZVP Freq
 --------------------------------------------------------------------

 Structure from the checkpoint file:  "checkpoint.chk"
 ------------
 ts_initalOpt
 ------------
 Charge =  0 Multiplicity = 1

                         Standard orientation:
 ---------------------------------------------------------------------
 Center     Atomic      Atomic             Coordinates (Angstroms)
 Number     Number       Type             X           Y           Z
 ---------------------------------------------------------------------
      1          1           0        2.285651    0.003366   -0.896848
      2          6           0        1.443808    0.033659   -0.216198
      3          6           0        0.728228    1.208428   -0.023554
      4          1           0        1.175785    2.164867   -0.277347
      5          6           0       -0.638935    1.176457    0.270922
      6          1           0       -1.187854    2.103485    0.366265
      7          6           0       -1.390606    0.035693   -0.090631
      8          1           0       -2.412078    0.231350   -0.439165
      9          8           0       -0.992589   -1.151118   -0.202587
     10          6           0        0.909672   -1.134568    0.318919
     11          1           0        1.255288   -2.105485   -0.012382
     12          1           0        0.510911   -1.106655    1.323430
 ---------------------------------------------------------------------

 SCF Done:  E(RB3LYP) =  -269.391777563     A.U. after    1 cycles

 Isotropic polarizability for W=    0.000000       65.34 Bohr**3.
 End of Minotr F.D. properties file   721 does not exist.

 ******    1 imaginary frequencies (negative Signs) ******

                      1                      2                      3
                      A                      A                      A
 Frequencies --   -504.1155               241.4526               376.4194
 Red. masses --      5.6948                 2.9019                 2.5370
 Frc consts  --      0.8527                 0.0997                 0.2118
 IR Inten    --     44.7980                 4.5003                 9.0209

                      4                      5                      6
                      A                      A                      A
 Frequencies --    418.9223               570.1096               588.9948
 Red. masses --      4.3955                 2.6254                 3.8483
 Frc consts  --      0.4545                 0.5028                 0.7866
 IR Inten    --      4.2878                23.7732                 2.1182

                      7                      8                      9
                      A                      A                      A
 Frequencies --    718.8868               785.2839               884.1342
 Red. masses --      1.2424                 1.3783                 2.1469
 Frc consts  --      0.3783                 0.5008                 0.9888
 IR Inten    --     51.4902                30.4593                26.2400

                     10                     11                     12
                      A                      A                      A
 Frequencies --    953.4428               965.1899               979.3236
 Red. masses --      1.5133                 1.4100                 1.5033
 Frc consts  --      0.8105                 0.7739                 0.8495
 IR Inten    --     46.5483                 4.1834                 3.0764

                     13                     14                     15
                      A                      A                      A
 Frequencies --   1014.8666              1041.6423              1098.1396
 Red. masses --      3.5868                 1.7743                 1.3335
 Frc consts  --      2.1766                 1.1343                 0.9474
 IR Inten    --     20.4685                 3.9595                17.7953

                     16                     17                     18
                      A                      A                      A
 Frequencies --   1111.3526              1182.3427              1249.2632
 Red. masses --      1.5369                 1.2144                 1.3754
 Frc consts  --      1.1184                 1.0002                 1.2647
 IR Inten    --      0.7540                12.5600                 2.5622

                     19                     20                     21
                      A                      A                      A
 Frequencies --   1352.7213              1400.9091              1442.7510
 Red. masses --      1.3517                 1.8762                 1.7959
 Frc consts  --      1.4573                 2.1694                 2.2025
 IR Inten    --     39.1607                60.6274                62.1403

                     22                     23                     24
                      A                      A                      A
 Frequencies --   1497.1918              1556.7755              1619.4729
 Red. masses --      1.7534                 2.2912                 5.8036
 Frc consts  --      2.3157                 3.2716                 8.9679
 IR Inten    --      4.2793                23.3394               119.2255

                     25                     26                     27
                      A                      A                      A
 Frequencies --   3028.4606              3140.0618              3142.2396
 Red. masses --      1.0854                 1.0869                 1.0576
 Frc consts  --      5.8650                 6.3142                 6.1527
 IR Inten    --     31.6043                15.5098                12.4162

                     28                     29                     30
                      A                      A                      A
 Frequencies --   3174.3911              3191.8365              3227.1156
 Red. masses --      1.0916                 1.0912                 1.1178
 Frc consts  --      6.4811                 6.5500                 6.8585
 IR Inten    --      6.3726                 8.4091                 4.9001

 - Thermochemistry -
 -------------------
 Temperature   298.150 Kelvin.  Pressure   1.00000 Atm.
 Atom     1 has atomic number  1 and mass   1.00783

 Molecular mass:    82.04186 amu.
 Principal axes and moments of inertia in atomic units:
                           1         2         3
     Eigenvalues --   325.95805 386.24107 666.68524
           X            0.97476  -0.22299  -0.01078
           Y            0.22280   0.97472  -0.01664
           Z            0.01422   0.01382   0.99980
 This molecule is an asymmetric top.
 Rotational symmetry number  1.
 Rotational temperatures (Kelvin)      0.26572     0.22425     0.12992
 Rotational constants (GHZ):           5.53673     4.67258     2.70704
    1 imaginary frequencies ignored.
 Zero-point vibrational energy     250938.8 (Joules/Mol)
                                   59.97582 (Kcal/Mol)
 Warning -- explicit consideration of   5 degrees of freedom as
           vibrations may cause significant error
 Vibrational temperatures:    347.40   541.58   602.74   820.26   847.43
          (Kelvin)           1034.32  1129.85  1272.07  1371.79  1388.69
                             1409.03  1460.17  1498.69  1579.98  1598.99
                             1701.13  1797.41  1946.26  2015.60  2075.80
                             2154.13  2239.85  2330.06  4357.28  4517.85
                             4520.98  4567.24  4592.34  4643.10

 Zero-point correction=                           0.095578 (Hartree/Particle)
 Thermal correction to Energy=                    0.100429
 Thermal correction to Enthalpy=                  0.101373
 Thermal correction to Gibbs Free Energy=         0.067544
 Sum of electronic and zero-point Energies=           -269.296200
 Sum of electronic and thermal Energies=              -269.291348
 Sum of electronic and thermal Enthalpies=            -269.290404
 Sum of electronic and thermal Free Energies=         -269.324233

                     E (Thermal)             CV                S
                      KCal/Mol        Cal/Mol-Kelvin    Cal/Mol-Kelvin
 Total                   63.020             18.225             71.200
 Electronic               0.000              0.000              0.000
 Translational            0.889              2.981             39.128
 Rotational               0.889              2.981             25.932
 Vibrational             61.243             12.263              6.140
 Vibration     1          0.658              1.777              1.792
 Vibration     2          0.747              1.520              1.054
 Vibration     3          0.782              1.429              0.896
 Vibration     4          0.926              1.096              0.504
 Vibration     5          0.946              1.055              0.469

 Optimization completed.
    -- Stationary point found.
 Normal termination of Gaussian 16 at Fri Jun 10 22:03:26 2022.
