 Gaussian 16, Revision A.03,
 Gaussian 16:  ES64L-G16RevA.03 25-Dec-2016

 --------------------------
 # sp B3LYP/Def2TZVP NoSymm
 --------------------------

 ----------------------------
 int_initalOpt_zmat_AlignedSp
 ----------------------------
 Symbolic Z-matrix:
 Charge =  0 Multiplicity = 1

                          Input orientation:
 ---------------------------------------------------------------------
 Center     Atomic      Atomic             Coordinates (Angstroms)
 Number     Number       Type             X           Y           Z
 ---------------------------------------------------------------------
      1          1           0        0.000000    0.000000    0.000000
      2          7           0        0.000000    0.000000    1.004841
      3          6           0        1.117917    0.000000    1.789806
      4          6           0       -1.139978   -0.088115    1.780426
      5          1           0        2.104251    0.046995    1.361059
      6          6           0        0.706648   -0.069894    3.100257
      7          6           0       -0.706790   -0.125324    3.099249
      8          6           0       -2.439518   -0.047099    1.150358
      9          1           0        1.350041   -0.072973    3.964243
     10          1           0       -2.445499    0.397071    0.159109
     11          1           0       -1.336649   -0.138043    3.971250
     12          6           0       -3.639728   -0.458583    1.603467
     13          1           0       -4.488973   -0.252555    0.963428
     14          6           0       -4.017330   -1.161363    2.819052
     15          1           0       -5.072560   -1.227440    3.063301
     16          6           0       -3.269319   -1.858438    3.653864
     17          8           0       -2.673008   -2.479757    4.428703
 ---------------------------------------------------------------------

 SCF Done:  E(RB3LYP) =  -439.153855642     A.U. after   15 cycles

 Alpha  occ. eigenvalues --  -19.19830 -14.36149 -10.29963 -10.20234 -10.19481
 Alpha  occ. eigenvalues --  -10.19328 -10.19086 -10.17933 -10.15786 -10.15722
 Alpha  occ. eigenvalues --   -1.12788  -0.98269  -0.82669  -0.77797  -0.76941
 Alpha  occ. eigenvalues --   -0.71156  -0.62152  -0.59481  -0.57514  -0.54441
 Alpha  occ. eigenvalues --   -0.51928  -0.50766  -0.46470  -0.45926  -0.45741
 Alpha  occ. eigenvalues --   -0.43171  -0.41975  -0.40733  -0.39720  -0.38854
 Alpha  occ. eigenvalues --   -0.36368  -0.32507  -0.25328  -0.25187  -0.19186
 Alpha virt. eigenvalues --   -0.04578  -0.03416   0.02747   0.03968   0.05137
 Alpha virt. eigenvalues --    0.06106   0.07072   0.08264   0.09145   0.09873
 Alpha virt. eigenvalues --    0.11641   0.12120   0.12408   0.15060   0.16411

 Mulliken charges:
               1
     1  H    0.211904
     2  N   -0.255106
     3  C   -0.063057
     4  C    0.243664
     5  H    0.131355
     6  C   -0.164156
     7  C   -0.200146
     8  C   -0.248057
     9  H    0.109306
    10  H    0.094776
    11  H    0.127305
    12  C   -0.072297
    13  H    0.109387
    14  C   -0.276372
    15  H    0.147939
    16  C    0.233594
    17  O   -0.130041
 Sum of Mulliken charges =  -0.00000

 Dipole moment (field-independent basis, Debye):
    X=             -0.4226    Y=              0.5890    Z=             -2.2762  Tot=              2.3889
 Quadrupole moment (field-independent basis, Debye-Ang):
   XX=            -47.3599   YY=            -65.0730   ZZ=            -63.5473
   XY=              0.6891   XZ=             -1.1436   YZ=              2.1711

 Normal termination of Gaussian 16 at Fri Jun 10 22:20:27 2022.
