 Gaussian 16, Revision A.03,
 Gaussian 16:  ES64L-G16RevA.03 25-Dec-2016

 ----------------------------------------------------------------------
 # Opt=(Z-matrix, MaxStep=10) B3LYP/Def2TZVP geom=allcheckpoint guess=r
 ead Field=read NoSymm freq=noraman pop=none
 ----------------------------------------------------------------------

 Structure from the checkpoint file:  "checkpoint.chk"
 ------------------
 int_zmat_initalOpt
 ------------------
 Charge =  0 Multiplicity = 1

 SCF Done:  E(RB3LYP) =  -669.482297751     A.U. after   10 cycles
 SCF Done:  E(RB3LYP) =  -669.482354021     A.U. after   11 cycles
 SCF Done:  E(RB3LYP) =  -669.482380142     A.U. after   12 cycles
 SCF Done:  E(RB3LYP) =  -669.482373945     A.U. after   13 cycles
 SCF Done:  E(RB3LYP) =  -669.482404738     A.U. after   11 cycles
 SCF Done:  E(RB3LYP) =  -669.482408884     A.U. after   13 cycles
 SCF Done:  E(RB3LYP) =  -669.482413534     A.U. after   14 cycles
 SCF Done:  E(RB3LYP) =  -669.482437336     A.U. after   12 cycles
 SCF Done:  E(RB3LYP) =  -669.482446815     A.U. after   14 cycles
 SCF Done:  E(RB3LYP) =  -669.482458187     A.U. after   13 cycles
 SCF Done:  E(RB3LYP) =  -669.482463303     A.U. after   15 cycles
 SCF Done:  E(RB3LYP) =  -669.482642475     A.U. after   11 cycles
 SCF Done:  E(RB3LYP) =  -669.482643411     A.U. after    9 cycles
 SCF Done:  E(RB3LYP) =  -669.482643797     A.U. after    8 cycles
 SCF Done:  E(RB3LYP) =  -669.482644068     A.U. after   10 cycles
 SCF Done:  E(RB3LYP) =  -669.482644238     A.U. after   10 cycles
 SCF Done:  E(RB3LYP) =  -669.482644322     A.U. after    9 cycles
 SCF Done:  E(RB3LYP) =  -669.482644402     A.U. after    9 cycles
 SCF Done:  E(RB3LYP) =  -669.482644432     A.U. after    9 cycles
 Optimization completed.
    -- Stationary point found.
 Normal termination of Gaussian 16 at Fri Jun 10 14:57:51 2022.

 --------------------------------------------------------------------
 #N Geom=AllCheck Guess=TCheck SCRF=Check GenChk RB3LYP/def2TZVP Freq
 --------------------------------------------------------------------

 Structure from the checkpoint file:  "checkpoint.chk"
 ------------------
 int_zmat_initalOpt
 ------------------
 Charge =  0 Multiplicity = 1

                          Input orientation:
 ---------------------------------------------------------------------
 Center     Atomic      Atomic             Coordinates (Angstroms)
 Number     Number       Type             X           Y           Z
 ---------------------------------------------------------------------
      1          6           0        0.000000    0.000000    0.000000
      2          6           0        0.000000    0.000000    1.512518
      3          6           0        1.213592    0.000000   -0.550647
      4          1           0       -0.924539    0.037501   -0.564739
      5          6           0        2.344524   -0.049187    0.443161
      6          6           0        0.736256   -1.315187    1.915527
      7          1           0       -1.002234    0.009230    1.934421
      8          6           0        0.823886    1.222174    1.997869
      9          1           0        1.390359    0.022944   -1.620701
     10          6           0        2.159303   -1.304258    1.336528
     11          1           0        3.321213   -0.083049   -0.040237
     12          6           0        2.230722    1.197675    1.356083
     13          1           0        0.882230    1.216523    3.084009
     14          1           0        0.283917    2.127351    1.717355
     15          7           0       -0.178068   -2.421178    1.349103
     16          6           0        0.745369   -1.690291    3.414054
     17          1           0        2.899438   -1.303855    2.135686
     18          1           0        2.313717   -2.220655    0.765160
     19          1           0        3.007440    1.153807    2.121035
     20          1           0        2.411046    2.102653    0.774828
     21          8           0        0.353369   -3.273732    0.706094
     22          8           0        1.332945   -2.666363    3.799460
     23          8           0        0.041985   -0.862887    4.178946
     24          6           0        0.065398   -1.135896    5.608740
     25          1           0       -0.523936   -0.345494    6.061269
     26          1           0       -0.369435   -2.113365    5.805571
     27          1           0        1.089486   -1.110944    5.973964
 ---------------------------------------------------------------------

 SCF Done:  E(RB3LYP) =  -669.482644432     A.U. after    1 cycles

 Isotropic polarizability for W=    0.000000      124.87 Bohr**3.
 End of Minotr F.D. properties file   721 does not exist.

                      1                      2                      3
                      A                      A                      A
 Frequencies --     15.3047                65.4258                85.9867
 Red. masses --      6.1070                 7.4723                 3.8166
 Frc consts  --      0.0008                 0.0188                 0.0166
 IR Inten    --      1.9969                 0.0477                 0.2115

                      4                      5                      6
                      A                      A                      A
 Frequencies --    123.5939               131.7957               155.5766
 Red. masses --      1.1435                 3.5614                 3.1983
 Frc consts  --      0.0103                 0.0364                 0.0456
 IR Inten    --      0.5629                 1.0863                 1.1593

                      7                      8                      9
                      A                      A                      A
 Frequencies --    227.5698               235.5982               263.8337
 Red. masses --      2.8389                 3.4122                 4.8646
 Frc consts  --      0.0866                 0.1116                 0.1995
 IR Inten    --      2.0245                 0.5030                 5.3627

                     10                     11                     12
                      A                      A                      A
 Frequencies --    309.5635               319.4572               345.5182
 Red. masses --      3.8548                 6.9271                 3.2326
 Frc consts  --      0.2176                 0.4165                 0.2274
 IR Inten    --      8.5873                 6.8406                 4.7392

                     13                     14                     15
                      A                      A                      A
 Frequencies --    379.8820               393.2280               439.6551
 Red. masses --      3.9124                 2.1328                 5.2588
 Frc consts  --      0.3327                 0.1943                 0.5989
 IR Inten    --      1.9707                 2.3559                 2.6359

                     16                     17                     18
                      A                      A                      A
 Frequencies --    468.8179               593.7471               629.2501
 Red. masses --      3.7504                 4.8946                 4.1982
 Frc consts  --      0.4857                 1.0167                 0.9794
 IR Inten    --      0.5045                 4.9627                 8.3579

                     19                     20                     21
                      A                      A                      A
 Frequencies --    656.6517               682.1954               724.1797
 Red. masses --      5.6222                 2.3958                 3.5265
 Frc consts  --      1.4283                 0.6569                 1.0897
 IR Inten    --      9.1194                 5.3786                12.5420

                     22                     23                     24
                      A                      A                      A
 Frequencies --    724.7691               778.6416               823.8744
 Red. masses --      3.0522                 3.9801                 3.0335
 Frc consts  --      0.9446                 1.4218                 1.2131
 IR Inten    --     52.4952                15.6724                17.2098

                     25                     26                     27
                      A                      A                      A
 Frequencies --    828.5326               833.7567               880.8792
 Red. masses --      3.0155                 1.7991                 2.5617
 Frc consts  --      1.2196                 0.7369                 1.1711
 IR Inten    --      2.0030                14.9815                 9.7366

                     28                     29                     30
                      A                      A                      A
 Frequencies --    912.0389               937.7638               949.0084
 Red. masses --      3.4473                 2.9238                 1.5247
 Frc consts  --      1.6895                 1.5149                 0.8091
 IR Inten    --     16.7355                16.6066                 2.7810

                     31                     32                     33
                      A                      A                      A
 Frequencies --    965.2319               971.0458               991.3366
 Red. masses --      2.1892                 2.7741                 2.9260
 Frc consts  --      1.2017                 1.5412                 1.6942
 IR Inten    --      3.0121                 4.2269                 2.2642

                     34                     35                     36
                      A                      A                      A
 Frequencies --   1022.2961              1046.8120              1063.6460
 Red. masses --      2.2542                 4.4693                 3.5905
 Frc consts  --      1.3880                 2.8856                 2.3933
 IR Inten    --      0.4752                17.6526                 4.0826

                     37                     38                     39
                      A                      A                      A
 Frequencies --   1101.0633              1105.0064              1142.0659
 Red. masses --      1.9831                 1.8031                 1.1334
 Frc consts  --      1.4165                 1.2972                 0.8710
 IR Inten    --     13.0785                 4.3889                 0.7656

                     40                     41                     42
                      A                      A                      A
 Frequencies --   1167.3686              1195.7071              1201.6830
 Red. masses --      1.2726                 1.2683                 1.4139
 Frc consts  --      1.0218                 1.0684                 1.2030
 IR Inten    --      1.9910                 9.9133                28.5066

                     43                     44                     45
                      A                      A                      A
 Frequencies --   1214.9968              1243.5919              1257.6998
 Red. masses --      1.6699                 1.2399                 2.2816
 Frc consts  --      1.4524                 1.1298                 2.1264
 IR Inten    --     56.3263                 4.7885               246.4603

                     46                     47                     48
                      A                      A                      A
 Frequencies --   1267.4243              1280.0073              1308.7427
 Red. masses --      1.4948                 1.5556                 1.4917
 Frc consts  --      1.4148                 1.5016                 1.5053
 IR Inten    --     78.9216                15.9182                38.4096

                     49                     50                     51
                      A                      A                      A
 Frequencies --   1332.9755              1343.3285              1363.7689
 Red. masses --      1.3262                 1.4391                 1.4095
 Frc consts  --      1.3884                 1.5301                 1.5445
 IR Inten    --      0.5503                 0.8980                 0.2552

                     52                     53                     54
                      A                      A                      A
 Frequencies --   1375.4073              1400.4930              1472.3218
 Red. masses --      1.5102                 1.6703                 1.1959
 Frc consts  --      1.6833                 1.9303                 1.5274
 IR Inten    --      3.2577                 6.0672                15.1031

                     55                     56                     57
                      A                      A                      A
 Frequencies --   1484.9977              1491.6227              1492.3701
 Red. masses --      1.0458                 1.0519                 1.0731
 Frc consts  --      1.3588                 1.3789                 1.4082
 IR Inten    --     12.8757                 4.8740                10.5367

                     58                     59                     60
                      A                      A                      A
 Frequencies --   1500.3926              1516.8261              1656.0031
 Red. masses --      1.0783                 1.0934                12.6738
 Frc consts  --      1.4302                 1.4822                20.4776
 IR Inten    --      7.9946                 5.5048                96.5495

                     61                     62                     63
                      A                      A                      A
 Frequencies --   1669.8108              1782.2523              3051.8159
 Red. masses --      6.0098                11.7216                 1.0624
 Frc consts  --      9.8729                21.9370                 5.8297
 IR Inten    --     18.6067               237.6049                13.9285

                     64                     65                     66
                      A                      A                      A
 Frequencies --   3063.3663              3064.6123              3072.6929
 Red. masses --      1.0696                 1.0656                 1.0288
 Frc consts  --      5.9138                 5.8963                 5.7230
 IR Inten    --     11.1911                18.8909                13.9605

                     67                     68                     69
                      A                      A                      A
 Frequencies --   3076.6304              3088.2887              3107.1311
 Red. masses --      1.0821                 1.1028                 1.1016
 Frc consts  --      6.0350                 6.1970                 6.2658
 IR Inten    --     45.5938                17.1326                 1.5650

                     70                     71                     72
                      A                      A                      A
 Frequencies --   3112.2197              3123.5495              3138.6368
 Red. masses --      1.0868                 1.0975                 1.0848
 Frc consts  --      6.2022                 6.3091                 6.2961
 IR Inten    --      9.2159                 9.6494                28.0729

                     73                     74                     75
                      A                      A                      A
 Frequencies --   3154.4257              3165.9612              3183.9619
 Red. masses --      1.1083                 1.1004                 1.1084
 Frc consts  --      6.4973                 6.4984                 6.6205
 IR Inten    --      6.1906                61.1281                 3.3372

 - Thermochemistry -
 -------------------
 Temperature   298.150 Kelvin.  Pressure   1.00000 Atm.
 Atom     1 has atomic number  6 and mass  12.00000

 Molecular mass:   195.08954 amu.
 Principal axes and moments of inertia in atomic units:
                           1         2         3
     Eigenvalues --  1651.242472791.566013471.25508
           X           -0.19795   0.14781   0.96900
           Y           -0.37847   0.90038  -0.21466
           Z            0.90420   0.40923   0.12229
 This molecule is an asymmetric top.
 Rotational symmetry number  1.
 Warning -- assumption of classical behavior for rotation
           may cause significant error
 Rotational temperatures (Kelvin)      0.05245     0.03103     0.02495
 Rotational constants (GHZ):           1.09296     0.64650     0.51991
 Zero-point vibrational energy     578679.7 (Joules/Mol)
                                  138.30776 (Kcal/Mol)
 Warning -- explicit consideration of  17 degrees of freedom as
           vibrations may cause significant error
 Vibrational temperatures:     22.02    94.13   123.72   177.82   189.62
          (Kelvin)            223.84   327.42   338.97   379.60   445.39
                              459.63   497.12   546.57   565.77   632.57
                              674.52   854.27   905.35   944.78   981.53
                             1041.93  1042.78  1120.29  1185.37  1192.07
                             1199.59  1267.39  1312.22  1349.23  1365.41
                             1388.75  1397.12  1426.31  1470.86  1506.13
                             1530.35  1584.18  1589.86  1643.18  1679.58
                             1720.36  1728.95  1748.11  1789.25  1809.55
                             1823.54  1841.64  1882.99  1917.85  1932.75
                             1962.16  1978.90  2015.00  2118.34  2136.58
                             2146.11  2147.19  2158.73  2182.37  2382.62
                             2402.49  2564.26  4390.88  4407.50  4409.29
                             4420.92  4426.58  4443.36  4470.47  4477.79
                             4494.09  4515.80  4538.52  4555.11  4581.01

 Zero-point correction=                           0.220407 (Hartree/Particle)
 Thermal correction to Energy=                    0.233305
 Thermal correction to Enthalpy=                  0.234249
 Thermal correction to Gibbs Free Energy=         0.180035
 Sum of electronic and zero-point Energies=           -669.262237
 Sum of electronic and thermal Energies=              -669.249339
 Sum of electronic and thermal Enthalpies=            -669.248395
 Sum of electronic and thermal Free Energies=         -669.302609

                     E (Thermal)             CV                S
                      KCal/Mol        Cal/Mol-Kelvin    Cal/Mol-Kelvin
 Total                  146.401             49.117            114.103
 Electronic               0.000              0.000              0.000
 Translational            0.889              2.981             41.710
 Rotational               0.889              2.981             31.148
 Vibrational            144.624             43.155             41.244
 Vibration     1          0.593              1.986              7.166
 Vibration     2          0.597              1.971              4.286
 Vibration     3          0.601              1.959              3.749
 Vibration     4          0.610              1.929              3.043
 Vibration     5          0.612              1.922              2.920
 Vibration     6          0.620              1.896              2.603
 Vibration     7          0.651              1.799              1.898
 Vibration     8          0.655              1.786              1.836
 Vibration     9          0.670              1.739              1.636
 Vibration    10          0.699              1.655              1.365
 Vibration    11          0.705              1.636              1.313
 Vibration    12          0.724              1.584              1.187
 Vibration    13          0.750              1.513              1.040
 Vibration    14          0.760              1.485              0.988
 Vibration    15          0.800              1.384              0.828
 Vibration    16          0.826              1.319              0.741
 Vibration    17          0.951              1.045              0.461

 Optimization completed.
    -- Stationary point found.
 Normal termination of Gaussian 16 at Fri Jun 10 15:39:43 2022.
