 Gaussian 16, Revision A.03,
 Gaussian 16:  ES64L-G16RevA.03 25-Dec-2016

 ----------------------------------------------------------------------
 # Opt=(TS, CalcFC, noeigentest, Z-matrix, MaxStep=10) geom=allcheckpoi
 nt guess=read Field=read NoSymm B3LYP/Def2TZVP freq=noraman pop=none
 ----------------------------------------------------------------------

 Structure from the checkpoint file:  "checkpoint.chk"
 -----------------
 ts_zmat_initalOpt
 -----------------
 Charge =  0 Multiplicity = 1

 SCF Done:  E(RB3LYP) =  -210.184062011     A.U. after   10 cycles
 SCF Done:  E(RB3LYP) =  -210.184067347     A.U. after    9 cycles
 Optimization completed.
    -- Stationary point found.
 Normal termination of Gaussian 16 at Fri Jun 10 11:57:02 2022.

 --------------------------------------------------------------------
 #N Geom=AllCheck Guess=TCheck SCRF=Check GenChk RB3LYP/def2TZVP Freq
 --------------------------------------------------------------------

 Structure from the checkpoint file:  "checkpoint.chk"
 -----------------
 ts_zmat_initalOpt
 -----------------
 Charge =  0 Multiplicity = 1

                          Input orientation:
 ---------------------------------------------------------------------
 Center     Atomic      Atomic             Coordinates (Angstroms)
 Number     Number       Type             X           Y           Z
 ---------------------------------------------------------------------
      1          6           0        0.000000    0.000000    0.000000
      2          6           0        0.000000    0.000000    1.392714
      3          6           0        1.337962    0.000000   -0.400742
      4          1           0       -0.857674    0.000049   -0.653914
      5          6           0        1.327762    0.026752    1.813510
      6          7           0        2.200295   -0.017899    0.778458
      7          1           0        1.767055   -0.225885   -1.364703
      8          1           0       -0.873858    0.018847    2.026147
      9          1           0        2.030354    1.000753    0.043702
     10          1           0        1.698860    0.129793    2.823575
 ---------------------------------------------------------------------

 SCF Done:  E(RB3LYP) =  -210.184067347     A.U. after    1 cycles

 Isotropic polarizability for W=    0.000000       50.45 Bohr**3.
 End of Minotr F.D. properties file   721 does not exist.

 ******    1 imaginary frequencies (negative Signs) ******

                      1                      2                      3
                      A                      A                      A
 Frequencies --  -1484.7095               589.7371               637.7203
 Red. masses --      1.2145                 2.2552                 3.8899
 Frc consts  --      1.5774                 0.4621                 0.9321
 IR Inten    --     97.9118                 2.1285                 3.4993

                      4                      5                      6
                      A                      A                      A
 Frequencies --    756.1123               831.4189               873.6086
 Red. masses --      1.1078                 1.4394                 4.6316
 Frc consts  --      0.3731                 0.5863                 2.0826
 IR Inten    --     94.7084                 3.1466                12.4696

                      7                      8                      9
                      A                      A                      A
 Frequencies --    886.3367               892.8004               940.6699
 Red. masses --      1.8645                 2.2518                 2.6434
 Frc consts  --      0.8630                 1.0575                 1.3781
 IR Inten    --     10.9736                 7.8823                26.6071

                     10                     11                     12
                      A                      A                      A
 Frequencies --    957.4788              1068.9770              1094.5727
 Red. masses --      1.6009                 1.3758                 1.2347
 Frc consts  --      0.8647                 0.9263                 0.8716
 IR Inten    --     13.3494                12.2833                 1.0933

                     13                     14                     15
                      A                      A                      A
 Frequencies --   1134.7943              1177.4463              1246.2709
 Red. masses --      2.1507                 1.1551                 1.8115
 Frc consts  --      1.6318                 0.9435                 1.6578
 IR Inten    --      1.6578                25.2204                 2.1059

                     16                     17                     18
                      A                      A                      A
 Frequencies --   1310.9400              1433.4552              1482.5191
 Red. masses --      1.7741                 2.9146                 3.0938
 Frc consts  --      1.7964                 3.5286                 4.0063
 IR Inten    --      2.1440                 9.2125                 3.2186

                     19                     20                     21
                      A                      A                      A
 Frequencies --   1512.5080              2179.9992              3196.2588
 Red. masses --      3.6006                 1.0723                 1.0904
 Frc consts  --      4.8531                 3.0026                 6.5631
 IR Inten    --      1.8903                13.6594                22.1429

                     22                     23                     24
                      A                      A                      A
 Frequencies --   3228.5473              3233.5932              3251.4296
 Red. masses --      1.0938                 1.0935                 1.1042
 Frc consts  --      6.7175                 6.7365                 6.8781
 IR Inten    --      4.1154                 0.6440                 2.8830

 - Thermochemistry -
 -------------------
 Temperature   298.150 Kelvin.  Pressure   1.00000 Atm.
 Atom     1 has atomic number  6 and mass  12.00000

 Molecular mass:    67.04220 amu.
 Principal axes and moments of inertia in atomic units:
                           1         2         3
     Eigenvalues --   196.20457 204.38316 392.99603
           X            0.96491  -0.26224  -0.01323
           Y            0.01491   0.00442   0.99988
           Z            0.26215   0.96499  -0.00818
 This molecule is an asymmetric top.
 Rotational symmetry number  1.
 Rotational temperatures (Kelvin)      0.44145     0.42378     0.22039
 Rotational constants (GHZ):           9.19826     8.83019     4.59226
    1 imaginary frequencies ignored.
 Zero-point vibrational energy     202869.9 (Joules/Mol)
                                   48.48706 (Kcal/Mol)
 Warning -- explicit consideration of   1 degrees of freedom as
           vibrations may cause significant error
 Vibrational temperatures:    848.50   917.54  1087.88  1196.23  1256.93
          (Kelvin)           1275.24  1284.54  1353.41  1377.60  1538.02
                             1574.85  1632.72  1694.08  1793.11  1886.15
                             2062.42  2133.01  2176.16  3136.53  4598.70
                             4645.16  4652.42  4678.08

 Zero-point correction=                           0.077269 (Hartree/Particle)
 Thermal correction to Energy=                    0.080966
 Thermal correction to Enthalpy=                  0.081910
 Thermal correction to Gibbs Free Energy=         0.050983
 Sum of electronic and zero-point Energies=           -210.106798
 Sum of electronic and thermal Energies=              -210.103101
 Sum of electronic and thermal Enthalpies=            -210.102157
 Sum of electronic and thermal Free Energies=         -210.133084

                     E (Thermal)             CV                S
                      KCal/Mol        Cal/Mol-Kelvin    Cal/Mol-Kelvin
 Total                   50.807             13.368             65.092
 Electronic               0.000              0.000              0.000
 Translational            0.889              2.981             38.526
 Rotational               0.889              2.981             24.270
 Vibrational             49.030              7.407              2.296
 Vibration     1          0.947              1.054              0.468

 Optimization completed.
    -- Stationary point found.
 Normal termination of Gaussian 16 at Fri Jun 10 11:58:34 2022.
