 Gaussian 16, Revision A.03,
 Gaussian 16:  ES64L-G16RevA.03 25-Dec-2016

 ----------------------------------------------------------------------
 # Opt=(TS, CalcFC, noeigentest, Z-matrix, MaxStep=10) geom=allcheckpoi
 nt guess=read Field=read NoSymm B3LYP/Def2TZVP freq=noraman pop=none
 ----------------------------------------------------------------------

 Structure from the checkpoint file:  "checkpoint.chk"
 -----------------
 ts_zmat_initalOpt
 -----------------
 Charge =  0 Multiplicity = 1

 SCF Done:  E(RB3LYP) =  -210.181399163     A.U. after   10 cycles
 SCF Done:  E(RB3LYP) =  -210.181405578     A.U. after    8 cycles
 Optimization completed.
    -- Stationary point found.
 Normal termination of Gaussian 16 at Fri Jun 10 23:18:52 2022.

 --------------------------------------------------------------------
 #N Geom=AllCheck Guess=TCheck SCRF=Check GenChk RB3LYP/def2TZVP Freq
 --------------------------------------------------------------------

 Structure from the checkpoint file:  "checkpoint.chk"
 -----------------
 ts_zmat_initalOpt
 -----------------
 Charge =  0 Multiplicity = 1

                          Input orientation:
 ---------------------------------------------------------------------
 Center     Atomic      Atomic             Coordinates (Angstroms)
 Number     Number       Type             X           Y           Z
 ---------------------------------------------------------------------
      1          1           0        0.000000    0.000000    0.000000
      2          6           0        0.000000    0.000000    1.078371
      3          6           0        1.111089    0.000000    1.917415
      4          6           0       -1.126944   -0.006381    1.905365
      5          1           0        2.143968   -0.019184    1.603996
      6          1           0       -1.190279   -1.007268    2.721296
      7          6           0        0.646086   -0.028416    3.231225
      8          7           0       -0.704208    0.015102    3.300621
      9          1           0       -2.155642    0.218299    1.669117
     10          1           0        1.226351   -0.130322    4.137118
 ---------------------------------------------------------------------

 SCF Done:  E(RB3LYP) =  -210.181405578     A.U. after    1 cycles

 Isotropic polarizability for W=    0.000000       50.45 Bohr**3.
 End of Minotr F.D. properties file   721 does not exist.

 ******    1 imaginary frequencies (negative Signs) ******

                      1                      2                      3
                      A                      A                      A
 Frequencies --  -1487.4526               590.4245               639.6403
 Red. masses --      1.2135                 2.2512                 3.8735
 Frc consts  --      1.5818                 0.4624                 0.9337
 IR Inten    --    101.8660                 2.2351                 3.4974

                      4                      5                      6
                      A                      A                      A
 Frequencies --    754.5743               835.9516               874.4003
 Red. masses --      1.1169                 1.4326                 3.6802
 Frc consts  --      0.3747                 0.5898                 1.6579
 IR Inten    --     93.4267                 3.7268                14.1282

                      7                      8                      9
                      A                      A                      A
 Frequencies --    883.4104               891.6652               939.9798
 Red. masses --      1.6575                 3.1008                 1.8614
 Frc consts  --      0.7621                 1.4526                 0.9690
 IR Inten    --     10.2770                 5.1789                11.7520

                     10                     11                     12
                      A                      A                      A
 Frequencies --    954.9783              1067.3740              1092.9800
 Red. masses --      2.1174                 1.3714                 1.2427
 Frc consts  --      1.1377                 0.9205                 0.8746
 IR Inten    --     27.9535                11.5042                 1.2335

                     13                     14                     15
                      A                      A                      A
 Frequencies --   1135.3407              1176.9107              1249.1540
 Red. masses --      2.1878                 1.1481                 1.7888
 Frc consts  --      1.6616                 0.9369                 1.6445
 IR Inten    --      2.0026                26.3045                 1.9175

                     16                     17                     18
                      A                      A                      A
 Frequencies --   1311.9857              1432.9264              1483.0264
 Red. masses --      1.8081                 2.8954                 3.1228
 Frc consts  --      1.8337                 3.5028                 4.0466
 IR Inten    --      2.2216                 8.2098                 3.0151

                     19                     20                     21
                      A                      A                      A
 Frequencies --   1511.1039              2182.1286              3201.8374
 Red. masses --      3.5672                 1.0725                 1.0899
 Frc consts  --      4.7991                 3.0089                 6.5831
 IR Inten    --      1.7001                16.8443                14.8927

                     22                     23                     24
                      A                      A                      A
 Frequencies --   3226.8424              3232.3509              3250.7734
 Red. masses --      1.0948                 1.0928                 1.1040
 Frc consts  --      6.7164                 6.7272                 6.8734
 IR Inten    --      7.0943                 0.4936                 1.1001

 - Thermochemistry -
 -------------------
 Temperature   298.150 Kelvin.  Pressure   1.00000 Atm.
 Atom     1 has atomic number  1 and mass   1.00783

 Molecular mass:    67.04220 amu.
 Principal axes and moments of inertia in atomic units:
                           1         2         3
     Eigenvalues --   196.16430 204.14993 392.69390
           X           -0.38175   0.92426  -0.00371
           Y           -0.01612  -0.00265   0.99987
           Z            0.92413   0.38175   0.01591
 This molecule is an asymmetric top.
 Rotational symmetry number  1.
 Rotational temperatures (Kelvin)      0.44154     0.42427     0.22056
 Rotational constants (GHZ):           9.20015     8.84027     4.59580
    1 imaginary frequencies ignored.
 Zero-point vibrational energy     202885.2 (Joules/Mol)
                                   48.49073 (Kcal/Mol)
 Warning -- explicit consideration of   1 degrees of freedom as
           vibrations may cause significant error
 Vibrational temperatures:    849.49   920.30  1085.66  1202.75  1258.07
          (Kelvin)           1271.03  1282.91  1352.42  1374.00  1535.71
                             1572.55  1633.50  1693.31  1797.25  1887.65
                             2061.66  2133.74  2174.14  3139.60  4606.73
                             4642.71  4650.63  4677.14

 Zero-point correction=                           0.077275 (Hartree/Particle)
 Thermal correction to Energy=                    0.080971
 Thermal correction to Enthalpy=                  0.081916
 Thermal correction to Gibbs Free Energy=         0.050990
 Sum of electronic and zero-point Energies=           -210.104131
 Sum of electronic and thermal Energies=              -210.100434
 Sum of electronic and thermal Enthalpies=            -210.099490
 Sum of electronic and thermal Free Energies=         -210.130415

                     E (Thermal)             CV                S
                      KCal/Mol        Cal/Mol-Kelvin    Cal/Mol-Kelvin
 Total                   50.810             13.368             65.088
 Electronic               0.000              0.000              0.000
 Translational            0.889              2.981             38.526
 Rotational               0.889              2.981             24.268
 Vibrational             49.033              7.407              2.294
 Vibration     1          0.948              1.052              0.466

 Optimization completed.
    -- Stationary point found.
 Normal termination of Gaussian 16 at Fri Jun 10 23:20:21 2022.
