 Gaussian 16, Revision A.03,
 Gaussian 16:  ES64L-G16RevA.03 25-Dec-2016

 ----------------------------------------------------------------------
 # Opt=(Z-matrix, MaxStep=10) B3LYP/Def2TZVP geom=allcheckpoint guess=r
 ead Field=read NoSymm freq=noraman pop=none
 ----------------------------------------------------------------------

 Structure from the checkpoint file:  "checkpoint.chk"
 ------------------
 int_zmat_initalOpt
 ------------------
 Charge =  0 Multiplicity = 1

 SCF Done:  E(RB3LYP) =  -439.157450482     A.U. after   11 cycles
 SCF Done:  E(RB3LYP) =  -439.157479258     A.U. after   10 cycles
 SCF Done:  E(RB3LYP) =  -439.157493419     A.U. after   10 cycles
 SCF Done:  E(RB3LYP) =  -439.157496147     A.U. after    9 cycles
 SCF Done:  E(RB3LYP) =  -439.157497536     A.U. after   10 cycles
 SCF Done:  E(RB3LYP) =  -439.157499588     A.U. after   10 cycles
 SCF Done:  E(RB3LYP) =  -439.157496680     A.U. after   10 cycles
 SCF Done:  E(RB3LYP) =  -439.157502586     A.U. after    8 cycles
 SCF Done:  E(RB3LYP) =  -439.157504116     A.U. after   10 cycles
 SCF Done:  E(RB3LYP) =  -439.157505303     A.U. after   10 cycles
 SCF Done:  E(RB3LYP) =  -439.157505893     A.U. after   10 cycles
 Optimization completed.
    -- Stationary point found.
 Normal termination of Gaussian 16 at Fri Jun 10 04:05:47 2022.

 --------------------------------------------------------------------
 #N Geom=AllCheck Guess=TCheck SCRF=Check GenChk RB3LYP/def2TZVP Freq
 --------------------------------------------------------------------

 Structure from the checkpoint file:  "checkpoint.chk"
 ------------------
 int_zmat_initalOpt
 ------------------
 Charge =  0 Multiplicity = 1

                          Input orientation:
 ---------------------------------------------------------------------
 Center     Atomic      Atomic             Coordinates (Angstroms)
 Number     Number       Type             X           Y           Z
 ---------------------------------------------------------------------
      1          6           0        0.000000    0.000000    0.000000
      2          6           0        0.000000    0.000000    1.455961
      3          6           0        0.991924    0.000000   -0.870764
      4          1           0       -0.954928    0.137293   -0.498979
      5          8           0        1.783935   -0.017085   -1.718855
      6          6           0        0.990057   -0.256819    2.333040
      7          1           0       -0.956500    0.287534    1.874383
      8          6           0        2.336368   -0.715291    2.090425
      9          1           0        0.744159   -0.092105    3.377958
     10          6           0        2.921809   -1.467563    1.078551
     11          7           0        3.331246   -0.481689    3.019172
     12          1           0        2.412324   -1.879847    0.224763
     13          6           0        4.281146   -1.667093    1.409696
     14          6           0        4.508001   -1.036070    2.611707
     15          1           0        3.221921    0.087923    3.841069
     16          1           0        5.013708   -2.213226    0.839438
     17          1           0        5.406447   -0.936647    3.196490
 ---------------------------------------------------------------------

 SCF Done:  E(RB3LYP) =  -439.157505893     A.U. after    1 cycles

 Isotropic polarizability for W=    0.000000      108.76 Bohr**3.
 End of Minotr F.D. properties file   721 does not exist.

                      1                      2                      3
                      A                      A                      A
 Frequencies --     42.5318                58.3904               122.5930
 Red. masses --      4.5622                 3.7118                 5.2822
 Frc consts  --      0.0049                 0.0075                 0.0468
 IR Inten    --      2.4533                 0.8500                 0.7070

                      4                      5                      6
                      A                      A                      A
 Frequencies --    165.7954               220.7611               315.0519
 Red. masses --      6.4589                 3.4883                 5.3534
 Frc consts  --      0.1046                 0.1002                 0.3131
 IR Inten    --      3.4381                 3.4927                 4.9593

                      7                      8                      9
                      A                      A                      A
 Frequencies --    465.5144               495.1528               520.1268
 Red. masses --      1.8662                 6.2551                 1.4175
 Frc consts  --      0.2383                 0.9036                 0.2259
 IR Inten    --     16.3004                 9.5342                40.0798

                     10                     11                     12
                      A                      A                      A
 Frequencies --    540.9356               583.6475               627.4903
 Red. masses --      5.0992                 2.3244                 2.5985
 Frc consts  --      0.8791                 0.4665                 0.6028
 IR Inten    --      3.9869                50.9930                 1.6882

                     13                     14                     15
                      A                      A                      A
 Frequencies --    650.3249               680.1421               737.2344
 Red. masses --      5.0014                 2.8266                 1.2528
 Frc consts  --      1.2462                 0.7704                 0.4012
 IR Inten    --      5.7833                 5.3969                91.7206

                     16                     17                     18
                      A                      A                      A
 Frequencies --    748.0665               810.1284               845.5243
 Red. masses --      1.5500                 1.4939                 3.4061
 Frc consts  --      0.5110                 0.5777                 1.4347
 IR Inten    --     20.2019                 8.4920                24.5787

                     19                     20                     21
                      A                      A                      A
 Frequencies --    877.9770               897.8215               919.6010
 Red. masses --      1.3434                 5.4494                 4.6538
 Frc consts  --      0.6101                 2.5881                 2.3187
 IR Inten    --      1.5423                 1.5630                18.9873

                     22                     23                     24
                      A                      A                      A
 Frequencies --    945.4959               983.9253              1062.3640
 Red. masses --      1.2412                 2.6095                 1.3320
 Frc consts  --      0.6538                 1.4884                 0.8858
 IR Inten    --      1.9520                 2.4679                18.2303

                     25                     26                     27
                      A                      A                      A
 Frequencies --   1123.5973              1139.3681              1156.3189
 Red. masses --      1.8844                 1.4275                 1.5445
 Frc consts  --      1.4017                 1.0919                 1.2167
 IR Inten    --     22.1276                41.5421                 4.8629

                     28                     29                     30
                      A                      A                      A
 Frequencies --   1238.3869              1255.5616              1309.1382
 Red. masses --      1.8430                 1.6696                 1.4113
 Frc consts  --      1.6652                 1.5507                 1.4251
 IR Inten    --      6.2242                 0.9752                 1.5317

                     31                     32                     33
                      A                      A                      A
 Frequencies --   1421.2497              1436.3526              1443.7359
 Red. masses --      2.2337                 2.7503                 2.9608
 Frc consts  --      2.6584                 3.3431                 3.6360
 IR Inten    --      1.4157                 6.6698                 7.6976

                     34                     35                     36
                      A                      A                      A
 Frequencies --   1470.2405              1485.4953              1594.3550
 Red. masses --      2.1820                 3.4885                 3.3568
 Frc consts  --      2.7790                 4.5356                 5.0274
 IR Inten    --      6.9890                70.4275                 0.9607

                     37                     38                     39
                      A                      A                      A
 Frequencies --   1665.6348              2177.2623              3134.8981
 Red. masses --      6.5649                12.6746                 1.0849
 Frc consts  --     10.7310                35.4001                 6.2817
 IR Inten    --     25.4755               688.1306                 3.3753

                     40                     41                     42
                      A                      A                      A
 Frequencies --   3141.7503              3173.4393              3243.7163
 Red. masses --      1.0822                 1.0903                 1.0897
 Frc consts  --      6.2939                 6.4691                 6.7550
 IR Inten    --      9.5614                10.8147                 5.9931

                     43                     44                     45
                      A                      A                      A
 Frequencies --   3257.8138              3269.8996              3641.3410
 Red. masses --      1.0953                 1.1039                 1.0806
 Frc consts  --      6.8492                 6.9542                 8.4415
 IR Inten    --      1.1746                 1.2598                79.4710

 - Thermochemistry -
 -------------------
 Temperature   298.150 Kelvin.  Pressure   1.00000 Atm.
 Atom     1 has atomic number  6 and mass  12.00000

 Molecular mass:   133.05276 amu.
 Principal axes and moments of inertia in atomic units:
                           1         2         3
     Eigenvalues --   763.521791823.987392466.10933
           X            0.72373  -0.61698   0.30912
           Y           -0.24001   0.19493   0.95100
           Z            0.64700   0.76245   0.00700
 This molecule is an asymmetric top.
 Rotational symmetry number  1.
 Warning -- assumption of classical behavior for rotation
           may cause significant error
 Rotational temperatures (Kelvin)      0.11344     0.04749     0.03512
 Rotational constants (GHZ):           2.36371     0.98945     0.73182
 Zero-point vibrational energy     341510.8 (Joules/Mol)
                                   81.62305 (Kcal/Mol)
 Warning -- explicit consideration of  11 degrees of freedom as
           vibrations may cause significant error
 Vibrational temperatures:     61.19    84.01   176.38   238.54   317.63
          (Kelvin)            453.29   669.77   712.41   748.35   778.29
                              839.74   902.82   935.67   978.57  1060.72
                             1076.30  1165.59  1216.52  1263.21  1291.76
                             1323.10  1360.36  1415.65  1528.50  1616.61
                             1639.30  1663.68  1781.76  1806.47  1883.56
                             2044.86  2066.59  2077.21  2115.35  2137.30
                             2293.92  2396.48  3132.59  4510.42  4520.28
                             4565.87  4666.98  4687.27  4704.66  5239.08

 Zero-point correction=                           0.130075 (Hartree/Particle)
 Thermal correction to Energy=                    0.139019
 Thermal correction to Enthalpy=                  0.139963
 Thermal correction to Gibbs Free Energy=         0.094926
 Sum of electronic and zero-point Energies=           -439.027431
 Sum of electronic and thermal Energies=              -439.018487
 Sum of electronic and thermal Enthalpies=            -439.017543
 Sum of electronic and thermal Free Energies=         -439.062580

                     E (Thermal)             CV                S
                      KCal/Mol        Cal/Mol-Kelvin    Cal/Mol-Kelvin
 Total                   87.236             33.129             94.789
 Electronic               0.000              0.000              0.000
 Translational            0.889              2.981             40.569
 Rotational               0.889              2.981             29.620
 Vibrational             85.458             27.168             24.600
 Vibration     1          0.595              1.980              5.138
 Vibration     2          0.596              1.974              4.511
 Vibration     3          0.610              1.930              3.059
 Vibration     4          0.624              1.885              2.483
 Vibration     5          0.647              1.809              1.953
 Vibration     6          0.702              1.645              1.336
 Vibration     7          0.823              1.327              0.750
 Vibration     8          0.851              1.261              0.670
 Vibration     9          0.875              1.205              0.610
 Vibration    10          0.896              1.160              0.563
 Vibration    11          0.941              1.067              0.479

                       ! Non-Optimized Parameters !
 Normal termination of Gaussian 16 at Fri Jun 10 04:15:52 2022.
