 Gaussian 16, Revision A.03,
 Gaussian 16:  ES64L-G16RevA.03 25-Dec-2016

 ----------------------------------------------------------------------
 # Opt=(Z-matrix, MaxStep=10) B3LYP/Def2TZVP geom=allcheckpoint guess=r
 ead Field=read NoSymm
 ----------------------------------------------------------------------

 Structure from the checkpoint file:  "checkpoint.chk"
 ------------------
 int_zmat_initalOpt
 ------------------
 Charge =  0 Multiplicity = 1

 SCF Done:  E(RB3LYP) =  -269.426542027     A.U. after   10 cycles
 SCF Done:  E(RB3LYP) =  -269.426551826     A.U. after    9 cycles
 SCF Done:  E(RB3LYP) =  -269.426557696     A.U. after    9 cycles
 SCF Done:  E(RB3LYP) =  -269.426561227     A.U. after    8 cycles
 SCF Done:  E(RB3LYP) =  -269.426562778     A.U. after    9 cycles
 SCF Done:  E(RB3LYP) =  -269.426563192     A.U. after    8 cycles
 Optimization completed.
    -- Stationary point found.

                         Z-Matrix orientation:
 ---------------------------------------------------------------------
 Center     Atomic      Atomic             Coordinates (Angstroms)
 Number     Number       Type             X           Y           Z
 ---------------------------------------------------------------------
      1          6           0        0.000000    0.000000    0.000000
      2          6           0        0.000000    0.000000    1.335106
      3          6           0        1.268581    0.000000   -0.715581
      4          1           0       -0.927143    0.070699   -0.555259
      5          1           0       -0.909246    0.071012    1.917340
      6          1           0        1.312759   -0.086648   -1.792490
      7          6           0        2.386916    0.259766   -0.021290
      8          6           0        1.303912   -0.115344    2.070007
      9          1           0        3.356474    0.434097   -0.474058
     10          8           0        2.418152    0.432293    1.311385
     11          1           0        1.297357    0.435944    3.007902
     12          1           0        1.541761   -1.165050    2.295372
 ---------------------------------------------------------------------

 Alpha  occ. eigenvalues --  -19.15939 -10.23767 -10.22208 -10.17448 -10.17413
 Alpha  occ. eigenvalues --  -10.16759  -1.06876  -0.81224  -0.77362  -0.66402
 Alpha  occ. eigenvalues --   -0.62640  -0.53428  -0.50361  -0.48690  -0.46056
 Alpha  occ. eigenvalues --   -0.43702  -0.40457  -0.37840  -0.35880  -0.32822
 Alpha  occ. eigenvalues --   -0.30196  -0.20809
 Alpha virt. eigenvalues --   -0.03232   0.02996   0.05650   0.06593   0.07774
 Alpha virt. eigenvalues --    0.09331   0.10458   0.12084   0.14532   0.16474
 Alpha virt. eigenvalues --    0.17389   0.19838   0.20438   0.21837   0.23838

 Mulliken charges:
               1
     1  C   -0.110019
     2  C   -0.165396
     3  C   -0.146374
     4  H    0.109342
     5  H    0.159799
     6  H    0.055554
     7  C    0.028372
     8  C    0.019268
     9  H    0.074340
    10  O   -0.261232
    11  H    0.155399
    12  H    0.080946
 Sum of Mulliken charges =  -0.00000

 Dipole moment (field-independent basis, Debye):
    X=             -1.3498    Y=             -0.0600    Z=              1.6605  Tot=              2.1407
 Quadrupole moment (field-independent basis, Debye-Ang):
   XX=            -37.8329   YY=            -38.6070   ZZ=            -29.8057
   XY=             -0.5363   XZ=             -0.9524   YZ=             -0.6339

 Normal termination of Gaussian 16 at Fri Mar 18 15:03:30 2022.
