 Gaussian 16, Revision A.03,
 Gaussian 16:  ES64L-G16RevA.03 25-Dec-2016

 ----------------------------------------------------------------------
 # Opt=(Z-matrix, MaxStep=10) B3LYP/Def2TZVP geom=allcheckpoint guess=r
 ead Field=read NoSymm freq=noraman pop=none
 ----------------------------------------------------------------------

 Structure from the checkpoint file:  "checkpoint.chk"
 ------------------
 int_zmat_initalOpt
 ------------------
 Charge =  0 Multiplicity = 1

 SCF Done:  E(RB3LYP) =  -669.474642607     A.U. after   10 cycles
 SCF Done:  E(RB3LYP) =  -669.474690959     A.U. after   11 cycles
 SCF Done:  E(RB3LYP) =  -669.474701677     A.U. after   12 cycles
 SCF Done:  E(RB3LYP) =  -669.474674541     A.U. after   13 cycles
 SCF Done:  E(RB3LYP) =  -669.474714388     A.U. after   10 cycles
 SCF Done:  E(RB3LYP) =  -669.474690411     A.U. after   13 cycles
 SCF Done:  E(RB3LYP) =  -669.474717129     A.U. after   11 cycles
 SCF Done:  E(RB3LYP) =  -669.474720081     A.U. after   10 cycles
 SCF Done:  E(RB3LYP) =  -669.474722781     A.U. after   11 cycles
 SCF Done:  E(RB3LYP) =  -669.474724656     A.U. after   11 cycles
 SCF Done:  E(RB3LYP) =  -669.474727798     A.U. after    9 cycles
 SCF Done:  E(RB3LYP) =  -669.474728224     A.U. after   11 cycles
 SCF Done:  E(RB3LYP) =  -669.474728767     A.U. after   10 cycles
 SCF Done:  E(RB3LYP) =  -669.474729296     A.U. after   11 cycles
 SCF Done:  E(RB3LYP) =  -669.474729595     A.U. after   10 cycles
 SCF Done:  E(RB3LYP) =  -669.474729765     A.U. after    9 cycles
 SCF Done:  E(RB3LYP) =  -669.474729959     A.U. after    9 cycles
 SCF Done:  E(RB3LYP) =  -669.474730101     A.U. after    8 cycles
 SCF Done:  E(RB3LYP) =  -669.474730159     A.U. after    9 cycles
 Optimization completed.
    -- Stationary point found.
 Normal termination of Gaussian 16 at Fri Jun 10 07:31:29 2022.

 --------------------------------------------------------------------
 #N Geom=AllCheck Guess=TCheck SCRF=Check GenChk RB3LYP/def2TZVP Freq
 --------------------------------------------------------------------

 Structure from the checkpoint file:  "checkpoint.chk"
 ------------------
 int_zmat_initalOpt
 ------------------
 Charge =  0 Multiplicity = 1

                          Input orientation:
 ---------------------------------------------------------------------
 Center     Atomic      Atomic             Coordinates (Angstroms)
 Number     Number       Type             X           Y           Z
 ---------------------------------------------------------------------
      1          6           0        0.000000    0.000000    0.000000
      2          6           0        0.000000    0.000000    1.507890
      3          6           0        1.211448    0.000000   -0.552658
      4          1           0       -0.926103    0.021495   -0.561076
      5          6           0        2.343279   -0.043197    0.439891
      6          6           0        0.777611   -1.282809    1.973862
      7          1           0       -1.000597   -0.003715    1.931702
      8          6           0        0.813842    1.230289    1.989911
      9          1           0        1.385870    0.017127   -1.622055
     10          6           0        2.162959   -1.302524    1.326048
     11          1           0        3.318722   -0.070238   -0.045802
     12          6           0        2.225631    1.201919    1.355503
     13          1           0        0.870177    1.236265    3.079328
     14          1           0        0.272263    2.131548    1.700863
     15          7           0       -0.158244   -2.440816    1.571709
     16          6           0        0.833741   -1.405768    3.508548
     17          1           0        2.929018   -1.339154    2.098391
     18          1           0        2.260986   -2.205807    0.722570
     19          1           0        2.996588    1.153741    2.126337
     20          1           0        2.408527    2.107821    0.776528
     21          8           0        0.288081   -3.221095    0.788850
     22          8           0        1.816631   -1.739043    4.115137
     23          8           0       -0.343749   -1.128717    4.077035
     24          6           0       -0.392531   -1.252585    5.516418
     25          1           0       -1.409288   -0.992531    5.794377
     26          1           0       -0.157707   -2.273006    5.813770
     27          1           0        0.319613   -0.571204    5.978094
 ---------------------------------------------------------------------

 SCF Done:  E(RB3LYP) =  -669.474730159     A.U. after    1 cycles

 Isotropic polarizability for W=    0.000000      124.70 Bohr**3.
 End of Minotr F.D. properties file   721 does not exist.

                      1                      2                      3
                      A                      A                      A
 Frequencies --     32.4161                50.8971                77.5861
 Red. masses --      7.2239                 6.7342                 3.8768
 Frc consts  --      0.0045                 0.0103                 0.0137
 IR Inten    --      1.3141                 0.6355                 0.2563

                      4                      5                      6
                      A                      A                      A
 Frequencies --    117.9228               135.3779               165.7162
 Red. masses --      2.8172                 1.1892                 3.7787
 Frc consts  --      0.0231                 0.0128                 0.0611
 IR Inten    --      1.2787                 0.0907                 2.3400

                      7                      8                      9
                      A                      A                      A
 Frequencies --    219.3645               233.0616               272.1008
 Red. masses --      5.2696                 2.0134                 5.6400
 Frc consts  --      0.1494                 0.0644                 0.2460
 IR Inten    --      1.7665                 0.8084                 6.5995

                     10                     11                     12
                      A                      A                      A
 Frequencies --    322.6516               336.1893               354.5502
 Red. masses --      4.1864                 5.8908                 4.2148
 Frc consts  --      0.2568                 0.3923                 0.3122
 IR Inten    --     11.9385                 5.7685                 1.3375

                     13                     14                     15
                      A                      A                      A
 Frequencies --    375.0080               400.0914               456.3852
 Red. masses --      3.0879                 2.0749                 4.2401
 Frc consts  --      0.2559                 0.1957                 0.5203
 IR Inten    --      2.2196                 3.5723                 5.5336

                     16                     17                     18
                      A                      A                      A
 Frequencies --    476.4859               593.6896               631.2849
 Red. masses --      4.7577                 5.0303                 5.2493
 Frc consts  --      0.6364                 1.0446                 1.2325
 IR Inten    --      5.8823                 6.7673                 9.4124

                     19                     20                     21
                      A                      A                      A
 Frequencies --    647.4445               675.7874               717.6399
 Red. masses --      4.8009                 3.2221                 2.9881
 Frc consts  --      1.1857                 0.8670                 0.9067
 IR Inten    --      0.0657                 1.7938                45.3200

                     22                     23                     24
                      A                      A                      A
 Frequencies --    731.7259               776.4586               826.6621
 Red. masses --      2.5713                 3.7485                 3.3485
 Frc consts  --      0.8112                 1.3315                 1.3482
 IR Inten    --     16.1959                 8.7375                10.0083

                     25                     26                     27
                      A                      A                      A
 Frequencies --    828.2480               844.0115               875.5060
 Red. masses --      1.6300                 3.3115                 2.6397
 Frc consts  --      0.6588                 1.3899                 1.1921
 IR Inten    --      3.0882                33.0588                 9.8134

                     28                     29                     30
                      A                      A                      A
 Frequencies --    904.6030               950.1539               960.9700
 Red. masses --      3.3438                 2.5228                 1.4364
 Frc consts  --      1.6121                 1.3419                 0.7815
 IR Inten    --     22.9861                 8.6150                 1.4686

                     31                     32                     33
                      A                      A                      A
 Frequencies --    972.0660               978.5416               992.7226
 Red. masses --      2.2679                 4.0458                 2.5109
 Frc consts  --      1.2626                 2.2825                 1.4579
 IR Inten    --      1.4079                 5.9593                 0.7546

                     34                     35                     36
                      A                      A                      A
 Frequencies --   1019.1407              1032.8944              1064.2309
 Red. masses --      2.7213                 4.1458                 2.9683
 Frc consts  --      1.6653                 2.6060                 1.9807
 IR Inten    --      1.9756                 6.2421                 0.6219

                     37                     38                     39
                      A                      A                      A
 Frequencies --   1107.4294              1112.6590              1147.1697
 Red. masses --      1.9160                 2.1048                 1.1089
 Frc consts  --      1.3845                 1.5352                 0.8598
 IR Inten    --     24.0095                43.3797                 4.9178

                     40                     41                     42
                      A                      A                      A
 Frequencies --   1170.8296              1194.8502              1199.0587
 Red. masses --      1.2776                 1.5838                 1.1902
 Frc consts  --      1.0319                 1.3322                 1.0082
 IR Inten    --      1.6239               104.9531                 9.1398

                     43                     44                     45
                      A                      A                      A
 Frequencies --   1213.9760              1245.2159              1254.5034
 Red. masses --      1.6125                 1.2476                 1.6821
 Frc consts  --      1.4002                 1.1398                 1.5597
 IR Inten    --     45.4288                 9.9745               124.7924

                     46                     47                     48
                      A                      A                      A
 Frequencies --   1268.9273              1283.4022              1311.5289
 Red. masses --      1.7199                 1.6440                 1.4160
 Frc consts  --      1.6317                 1.5954                 1.4351
 IR Inten    --     82.4701                29.1992                17.1062

                     49                     50                     51
                      A                      A                      A
 Frequencies --   1336.7239              1341.7647              1369.2344
 Red. masses --      1.3197                 1.4294                 1.3903
 Frc consts  --      1.3893                 1.5162                 1.5357
 IR Inten    --      2.6104                 2.5941                 0.1819

                     52                     53                     54
                      A                      A                      A
 Frequencies --   1379.2063              1401.9527              1473.2011
 Red. masses --      1.6091                 1.6865                 1.1899
 Frc consts  --      1.8034                 1.9530                 1.5215
 IR Inten    --      1.1042                 6.6858                12.0186

                     55                     56                     57
                      A                      A                      A
 Frequencies --   1485.2683              1493.1886              1495.0414
 Red. masses --      1.0452                 1.0760                 1.0474
 Frc consts  --      1.3585                 1.4135                 1.3793
 IR Inten    --     10.2039                 1.9537                10.1271

                     58                     59                     60
                      A                      A                      A
 Frequencies --   1500.2803              1514.9682              1657.5784
 Red. masses --      1.0812                 1.0928                13.4913
 Frc consts  --      1.4338                 1.4778                21.8399
 IR Inten    --     10.3233                 5.2484               156.2772

                     61                     62                     63
                      A                      A                      A
 Frequencies --   1675.8188              1789.5992              3048.4601
 Red. masses --      5.8642                11.7754                 1.0600
 Frc consts  --      9.7032                22.2196                 5.8038
 IR Inten    --     12.6079               201.2310                18.0653

                     64                     65                     66
                      A                      A                      A
 Frequencies --   3059.2054              3064.4584              3066.5695
 Red. masses --      1.0610                 1.0290                 1.0648
 Frc consts  --      5.8505                 5.6934                 5.8998
 IR Inten    --     31.4804                22.4288                 3.4158

                     67                     68                     69
                      A                      A                      A
 Frequencies --   3078.1200              3079.8454              3098.8796
 Red. masses --      1.1049                 1.0849                 1.1059
 Frc consts  --      6.1683                 6.0631                 6.2570
 IR Inten    --      2.1833                46.5479                34.7514

                     70                     71                     72
                      A                      A                      A
 Frequencies --   3116.8414              3122.7086              3140.7459
 Red. masses --      1.0997                 1.0866                 1.1076
 Frc consts  --      6.2942                 6.2429                 6.4373
 IR Inten    --      1.0018                 7.5193                 9.4684

                     73                     74                     75
                      A                      A                      A
 Frequencies --   3156.8816              3169.1434              3181.4193
 Red. masses --      1.0853                 1.1074                 1.1009
 Frc consts  --      6.3726                 6.5531                 6.5650
 IR Inten    --     14.5122                 9.5238                35.4080

 - Thermochemistry -
 -------------------
 Temperature   298.150 Kelvin.  Pressure   1.00000 Atm.
 Atom     1 has atomic number  6 and mass  12.00000

 Molecular mass:   195.08954 amu.
 Principal axes and moments of inertia in atomic units:
                           1         2         3
     Eigenvalues --  1614.738892878.937353371.51637
           X           -0.25073   0.26542   0.93096
           Y           -0.33680   0.87768  -0.34094
           Z            0.90758   0.39903   0.13067
 This molecule is an asymmetric top.
 Rotational symmetry number  1.
 Warning -- assumption of classical behavior for rotation
           may cause significant error
 Rotational temperatures (Kelvin)      0.05364     0.03009     0.02569
 Rotational constants (GHZ):           1.11767     0.62688     0.53529
 Zero-point vibrational energy     579329.0 (Joules/Mol)
                                  138.46295 (Kcal/Mol)
 Warning -- explicit consideration of  17 degrees of freedom as
           vibrations may cause significant error
 Vibrational temperatures:     46.64    73.23   111.63   169.66   194.78
          (Kelvin)            238.43   315.62   335.32   391.49   464.22
                              483.70   510.12   539.55   575.64   656.64
                              685.56   854.19   908.28   931.53   972.31
                             1032.52  1052.79  1117.15  1189.38  1191.66
                             1214.34  1259.66  1301.52  1367.06  1382.62
                             1398.59  1407.90  1428.31  1466.32  1486.10
                             1531.19  1593.34  1600.87  1650.52  1684.56
                             1719.12  1725.18  1746.64  1791.59  1804.95
                             1825.70  1846.53  1887.00  1923.25  1930.50
                             1970.02  1984.37  2017.10  2119.61  2136.97
                             2148.37  2151.03  2158.57  2179.70  2384.89
                             2411.13  2574.83  4386.05  4401.51  4409.07
                             4412.11  4428.73  4431.21  4458.60  4484.44
                             4492.88  4518.83  4542.05  4559.69  4577.35

 Zero-point correction=                           0.220655 (Hartree/Particle)
 Thermal correction to Energy=                    0.233485
 Thermal correction to Enthalpy=                  0.234429
 Thermal correction to Gibbs Free Energy=         0.180752
 Sum of electronic and zero-point Energies=           -669.254075
 Sum of electronic and thermal Energies=              -669.241246
 Sum of electronic and thermal Enthalpies=            -669.240301
 Sum of electronic and thermal Free Energies=         -669.293978

                     E (Thermal)             CV                S
                      KCal/Mol        Cal/Mol-Kelvin    Cal/Mol-Kelvin
 Total                  146.514             48.952            112.971
 Electronic               0.000              0.000              0.000
 Translational            0.889              2.981             41.710
 Rotational               0.889              2.981             31.128
 Vibrational            144.736             42.990             40.133
 Vibration     1          0.594              1.983              5.676
 Vibration     2          0.595              1.977              4.782
 Vibration     3          0.599              1.964              3.951
 Vibration     4          0.608              1.934              3.134
 Vibration     5          0.613              1.918              2.868
 Vibration     6          0.624              1.885              2.484
 Vibration     7          0.647              1.812              1.964
 Vibration     8          0.654              1.790              1.855
 Vibration     9          0.675              1.725              1.583
 Vibration    10          0.708              1.630              1.297
 Vibration    11          0.717              1.603              1.230
 Vibration    12          0.730              1.566              1.146
 Vibration    13          0.746              1.523              1.059
 Vibration    14          0.766              1.470              0.962
 Vibration    15          0.815              1.347              0.777
 Vibration    16          0.833              1.302              0.720
 Vibration    17          0.951              1.045              0.461

 Optimization completed.
    -- Stationary point found.
 Normal termination of Gaussian 16 at Fri Jun 10 08:14:28 2022.
