 Gaussian 16, Revision A.03,
 Gaussian 16:  ES64L-G16RevA.03 25-Dec-2016

 --------------------------
 # sp B3LYP/Def2TZVP NoSymm
 --------------------------

 ---------------------------
 ts_initalOpt_zmat_AlignedSp
 ---------------------------
 Symbolic Z-matrix:
 Charge =  0 Multiplicity = 1

                          Input orientation:
 ---------------------------------------------------------------------
 Center     Atomic      Atomic             Coordinates (Angstroms)
 Number     Number       Type             X           Y           Z
 ---------------------------------------------------------------------
      1          6           0        0.000000    0.000000    0.000000
      2          6           0        0.000000    0.000000    1.399485
      3          6           0        1.224069    0.000000   -0.611770
      4          1           0       -0.893420   -0.254131   -0.554428
      5          6           0        2.421482    0.098935    0.262247
      6          1           0       -0.890519   -0.325781    1.924946
      7          6           0        0.958709    0.874193    2.155225
      8          1           0        1.320358   -0.098258   -1.683856
      9          6           0        2.653955   -1.263036    1.035465
     10          1           0        3.319450    0.302507   -0.320446
     11          6           0        2.187750    1.215430    1.297898
     12          1           0        1.246851    0.407997    3.098519
     13          1           0        0.411846    1.783757    2.430076
     14          6           0        1.415416   -1.916482    1.550157
     15          1           0        3.341520   -1.072104    1.856990
     16          1           0        3.110579   -1.953133    0.324426
     17          1           0        3.071451    1.321514    1.928650
     18          1           0        2.041754    2.164930    0.779364
     19          7           0        0.654357   -2.647273    0.683660
     20          6           0        1.265698   -2.189388    2.994411
     21          8           0        0.985184   -2.488082   -0.513089
     22          8           0        2.006644   -1.726648    3.839374
     23          8           0        0.222294   -2.981665    3.292591
     24          6           0        0.057412   -3.300074    4.680866
     25          1           0       -0.810379   -3.952551    4.725814
     26          1           0        0.939420   -3.811013    5.066267
     27          1           0       -0.112034   -2.397711    5.268384
 ---------------------------------------------------------------------

 SCF Done:  E(RB3LYP) =  -669.437783741     A.U. after   16 cycles

 Alpha  occ. eigenvalues --  -19.16941 -19.13958 -19.11159 -14.38077 -10.30056
 Alpha  occ. eigenvalues --  -10.23233 -10.22463 -10.21685 -10.21646 -10.20286
 Alpha  occ. eigenvalues --  -10.19380 -10.19006 -10.18893 -10.18494  -1.10930
 Alpha  occ. eigenvalues --   -1.09974  -1.01762  -0.88531  -0.82296  -0.78481
 Alpha  occ. eigenvalues --   -0.77454  -0.72923  -0.70046  -0.63604  -0.62952
 Alpha  occ. eigenvalues --   -0.60878  -0.55271  -0.54184  -0.52130  -0.50460
 Alpha  occ. eigenvalues --   -0.49755  -0.48090  -0.47952  -0.45184  -0.44784
 Alpha  occ. eigenvalues --   -0.43588  -0.43473  -0.43169  -0.41932  -0.40894
 Alpha  occ. eigenvalues --   -0.39520  -0.39114  -0.37135  -0.36125  -0.35193
 Alpha  occ. eigenvalues --   -0.35021  -0.33848  -0.30910  -0.29436  -0.28485
 Alpha  occ. eigenvalues --   -0.25094  -0.20762
 Alpha virt. eigenvalues --   -0.10027  -0.04575   0.00814   0.02417   0.04043
 Alpha virt. eigenvalues --    0.05572   0.05664   0.06652   0.06817   0.07777
 Alpha virt. eigenvalues --    0.08419   0.08988   0.09703   0.10752   0.11387

 Mulliken charges:
               1
     1  C   -0.074796
     2  C   -0.077537
     3  C   -0.128259
     4  H    0.125237
     5  C    0.116886
     6  H    0.131031
     7  C   -0.179651
     8  H    0.128973
     9  C   -0.199469
    10  H    0.080645
    11  C   -0.234172
    12  H    0.153654
    13  H    0.113250
    14  C   -0.030850
    15  H    0.114752
    16  H    0.116503
    17  H    0.105678
    18  H    0.101604
    19  N    0.087332
    20  C    0.288458
    21  O   -0.325970
    22  O   -0.368527
    23  O   -0.238086
    24  C   -0.179925
    25  H    0.129132
    26  H    0.126122
    27  H    0.117985
 Sum of Mulliken charges =  -0.00000

 Dipole moment (field-independent basis, Debye):
    X=             -0.3622    Y=              3.4671    Z=              0.6514  Tot=              3.5463
 Quadrupole moment (field-independent basis, Debye-Ang):
   XX=            -80.3311   YY=            -89.5723   ZZ=            -80.4328
   XY=              3.4526   XZ=             -7.4434   YZ=             -4.0497

 Normal termination of Gaussian 16 at Fri Jun 10 03:54:07 2022.
