 Gaussian 16, Revision A.03,
 Gaussian 16:  ES64L-G16RevA.03 25-Dec-2016

 ----------------------------------------------------------------------
 # Opt=(TS, CalcFC, noeigentest, Z-matrix, MaxStep=10) geom=allcheckpoi
 nt guess=read Field=read NoSymm B3LYP/Def2TZVP freq=noraman pop=none
 ----------------------------------------------------------------------

 Structure from the checkpoint file:  "checkpoint.chk"
 -----------------
 ts_zmat_initalOpt
 -----------------
 Charge =  0 Multiplicity = 1

 SCF Done:  E(RB3LYP) =  -669.450732552     A.U. after   12 cycles
 SCF Done:  E(RB3LYP) =  -669.450871311     A.U. after   13 cycles
 SCF Done:  E(RB3LYP) =  -669.450872016     A.U. after   10 cycles
 Optimization completed.
    -- Stationary point found.
 Normal termination of Gaussian 16 at Fri Jun 10 07:54:52 2022.

 --------------------------------------------------------------------
 #N Geom=AllCheck Guess=TCheck SCRF=Check GenChk RB3LYP/def2TZVP Freq
 --------------------------------------------------------------------

 Structure from the checkpoint file:  "checkpoint.chk"
 -----------------
 ts_zmat_initalOpt
 -----------------
 Charge =  0 Multiplicity = 1

                          Input orientation:
 ---------------------------------------------------------------------
 Center     Atomic      Atomic             Coordinates (Angstroms)
 Number     Number       Type             X           Y           Z
 ---------------------------------------------------------------------
      1          6           0        0.000000    0.000000    0.000000
      2          6           0        0.000000    0.000000    1.397970
      3          6           0        1.218813    0.000000   -0.619908
      4          1           0       -0.907441   -0.189104   -0.556892
      5          6           0        2.423542   -0.017321    0.240601
      6          1           0       -0.901810   -0.294080    1.923448
      7          6           0        1.006844    0.802895    2.161655
      8          1           0        1.301321   -0.069787   -1.696163
      9          6           0        2.575640   -1.443247    0.927816
     10          1           0        3.328154    0.156708   -0.339618
     11          6           0        2.275445    1.059844    1.330985
     12          1           0        1.239168    0.330281    3.117270
     13          1           0        0.517015    1.749728    2.419803
     14          6           0        1.326261   -2.025358    1.500876
     15          1           0        3.328070   -1.342066    1.707607
     16          1           0        2.933045   -2.126530    0.156786
     17          1           0        3.156059    1.052204    1.973110
     18          1           0        2.231791    2.042167    0.860027
     19          7           0        0.473811   -2.728525    0.696767
     20          6           0        1.218981   -2.260900    2.948468
     21          8           0        0.738693   -2.640084   -0.523782
     22          8           0        2.045515   -1.903815    3.760756
     23          8           0        0.082023   -2.907483    3.326229
     24          6           0       -0.037392   -3.130813    4.731211
     25          1           0       -0.990046   -3.641308    4.864513
     26          1           0        0.781310   -3.749633    5.102122
     27          1           0       -0.032767   -2.190380    5.283067
 ---------------------------------------------------------------------

 SCF Done:  E(RB3LYP) =  -669.450872016     A.U. after    1 cycles

 Isotropic polarizability for W=    0.000000      138.89 Bohr**3.
 End of Minotr F.D. properties file   721 does not exist.

 ******    1 imaginary frequencies (negative Signs) ******

                      1                      2                      3
                      A                      A                      A
 Frequencies --   -213.8791                53.3042                77.6936
 Red. masses --      5.5211                 5.2236                 3.5354
 Frc consts  --      0.1488                 0.0087                 0.0126
 IR Inten    --     27.7450                 2.6449                 2.7325

                      4                      5                      6
                      A                      A                      A
 Frequencies --     93.8531               145.5390               166.6104
 Red. masses --      3.3169                 1.3713                 3.2767
 Frc consts  --      0.0172                 0.0171                 0.0536
 IR Inten    --      0.6888                 0.2454                 3.3964

                      7                      8                      9
                      A                      A                      A
 Frequencies --    182.0413               197.2680               251.2708
 Red. masses --      5.6096                 5.5452                 2.0672
 Frc consts  --      0.1095                 0.1271                 0.0769
 IR Inten    --     16.5570                12.0437                 3.4610

                     10                     11                     12
                      A                      A                      A
 Frequencies --    274.4444               326.9678               344.3991
 Red. masses --      3.8024                 5.8582                 4.3998
 Frc consts  --      0.1687                 0.3690                 0.3075
 IR Inten    --      2.9063                18.3048                13.6255

                     13                     14                     15
                      A                      A                      A
 Frequencies --    379.9226               399.0922               438.3479
 Red. masses --      2.7318                 2.5190                 4.7770
 Frc consts  --      0.2323                 0.2364                 0.5408
 IR Inten    --      1.1031                 0.5270                 7.9948

                     16                     17                     18
                      A                      A                      A
 Frequencies --    485.2361               501.9866               551.4379
 Red. masses --      3.1876                10.4188                 4.0488
 Frc consts  --      0.4422                 1.5469                 0.7254
 IR Inten    --      3.4319                 1.4651                 1.8905

                     19                     20                     21
                      A                      A                      A
 Frequencies --    566.0396               650.0680               736.5776
 Red. masses --      5.7223                 4.1355                 3.7219
 Frc consts  --      1.0802                 1.0297                 1.1897
 IR Inten    --      4.4755                 1.7419                 1.9009

                     22                     23                     24
                      A                      A                      A
 Frequencies --    754.0904               777.3969               786.4322
 Red. masses --      1.5558                 3.4250                 2.8628
 Frc consts  --      0.5213                 1.2195                 1.0432
 IR Inten    --     11.6656                 5.0427                18.1621

                     25                     26                     27
                      A                      A                      A
 Frequencies --    801.3480               833.7744               854.1639
 Red. masses --      1.9199                 3.1780                 3.0908
 Frc consts  --      0.7264                 1.3017                 1.3286
 IR Inten    --      0.9478                 4.9573                 0.6751

                     28                     29                     30
                      A                      A                      A
 Frequencies --    905.5996               918.7820               958.0432
 Red. masses --      2.4903                 1.9834                 2.4410
 Frc consts  --      1.2033                 0.9865                 1.3201
 IR Inten    --     28.0217                11.0710                12.1502

                     31                     32                     33
                      A                      A                      A
 Frequencies --    977.0357               985.7106              1005.1372
 Red. masses --      1.9088                 2.2974                 2.3317
 Frc consts  --      1.0736                 1.3152                 1.3879
 IR Inten    --      2.5252                18.1996                 7.8389

                     34                     35                     36
                      A                      A                      A
 Frequencies --   1019.8445              1053.5544              1070.0728
 Red. masses --      2.7018                 2.1420                 2.1779
 Frc consts  --      1.6557                 1.4008                 1.4693
 IR Inten    --     15.5322                26.4971                 3.6109

                     37                     38                     39
                      A                      A                      A
 Frequencies --   1125.2334              1137.8472              1172.0616
 Red. masses --      3.3789                 1.5142                 1.2553
 Frc consts  --      2.5206                 1.1551                 1.0160
 IR Inten    --    194.5710                36.7115                 4.4653

                     40                     41                     42
                      A                      A                      A
 Frequencies --   1172.6245              1191.7431              1195.0371
 Red. masses --      1.0767                 1.1472                 1.6406
 Frc consts  --      0.8723                 0.9599                 1.3804
 IR Inten    --     12.4017                25.9865               236.5479

                     43                     44                     45
                      A                      A                      A
 Frequencies --   1209.0559              1228.5507              1244.2743
 Red. masses --      1.4305                 1.4114                 1.2547
 Frc consts  --      1.2321                 1.2551                 1.1445
 IR Inten    --      7.1545                 7.2253                20.9070

                     46                     47                     48
                      A                      A                      A
 Frequencies --   1303.6191              1323.3344              1334.0454
 Red. masses --      2.7964                 1.6005                 1.8622
 Frc consts  --      2.7999                 1.6513                 1.9526
 IR Inten    --    122.5120                50.3806               122.7082

                     49                     50                     51
                      A                      A                      A
 Frequencies --   1363.1588              1375.3466              1388.8138
 Red. masses --      1.3298                 1.7391                 1.7092
 Frc consts  --      1.4559                 1.9383                 1.9423
 IR Inten    --      6.4868                13.1277                42.3178

                     52                     53                     54
                      A                      A                      A
 Frequencies --   1401.9583              1424.7249              1462.3392
 Red. masses --      4.5881                 1.7019                 1.2823
 Frc consts  --      5.3131                 2.0354                 1.6156
 IR Inten    --     84.9702                 2.2024                46.8002

                     55                     56                     57
                      A                      A                      A
 Frequencies --   1466.3324              1471.6881              1480.6830
 Red. masses --      1.1667                 1.2416                 1.0463
 Frc consts  --      1.4780                 1.5844                 1.3515
 IR Inten    --      8.8775                26.8999                 5.2264

                     58                     59                     60
                      A                      A                      A
 Frequencies --   1500.9835              1504.0430              1509.8545
 Red. masses --      1.0553                 1.1100                 1.9032
 Frc consts  --      1.4008                 1.4794                 2.5563
 IR Inten    --      8.9565                11.2912                 7.8448

                     61                     62                     63
                      A                      A                      A
 Frequencies --   1565.6647              1733.5710              3009.5082
 Red. masses --      3.7718                11.4474                 1.0735
 Frc consts  --      5.4475                20.2694                 5.7286
 IR Inten    --     44.6666               243.9920                 2.6129

                     64                     65                     66
                      A                      A                      A
 Frequencies --   3036.4702              3061.2055              3065.1483
 Red. masses --      1.0291                 1.0608                 1.0621
 Frc consts  --      5.5907                 5.8566                 5.8790
 IR Inten    --     66.6872                10.3096                 9.2698

                     67                     68                     69
                      A                      A                      A
 Frequencies --   3071.8989              3099.2371              3101.2466
 Red. masses --      1.0862                 1.0863                 1.1052
 Frc consts  --      6.0393                 6.1478                 6.2625
 IR Inten    --      1.8529                13.3099                24.0233

                     70                     71                     72
                      A                      A                      A
 Frequencies --   3105.9214              3122.2105              3126.0996
 Red. masses --      1.1052                 1.1059                 1.1029
 Frc consts  --      6.2819                 6.3519                 6.3504
 IR Inten    --      4.0072                31.7807                 0.9547

                     73                     74                     75
                      A                      A                      A
 Frequencies --   3165.4083              3190.9638              3208.4256
 Red. masses --      1.0883                 1.0893                 1.0970
 Frc consts  --      6.4247                 6.5352                 6.6531
 IR Inten    --      8.5418                 3.5546                 2.6000

 - Thermochemistry -
 -------------------
 Temperature   298.150 Kelvin.  Pressure   1.00000 Atm.
 Atom     1 has atomic number  6 and mass  12.00000

 Molecular mass:   195.08954 amu.
 Principal axes and moments of inertia in atomic units:
                           1         2         3
     Eigenvalues --  1571.147552975.458783465.41399
           X           -0.18093   0.29925   0.93686
           Y           -0.59347   0.72639  -0.34663
           Z            0.78425   0.61872  -0.04617
 This molecule is an asymmetric top.
 Rotational symmetry number  1.
 Warning -- assumption of classical behavior for rotation
           may cause significant error
 Rotational temperatures (Kelvin)      0.05513     0.02911     0.02499
 Rotational constants (GHZ):           1.14868     0.60654     0.52079
    1 imaginary frequencies ignored.
 Zero-point vibrational energy     575244.8 (Joules/Mol)
                                  137.48680 (Kcal/Mol)
 Warning -- explicit consideration of  18 degrees of freedom as
           vibrations may cause significant error
 Vibrational temperatures:     76.69   111.78   135.03   209.40   239.72
          (Kelvin)            261.92   283.82   361.52   394.86   470.43
                              495.51   546.62   574.20   630.68   698.15
                              722.25   793.40   814.40   935.30  1059.77
                             1084.97  1118.50  1131.50  1152.96  1199.62
                             1228.95  1302.96  1321.92  1378.41  1405.74
                             1418.22  1446.17  1467.33  1515.83  1539.60
                             1618.96  1637.11  1686.34  1687.15  1714.65
                             1719.39  1739.56  1767.61  1790.23  1875.62
                             1903.98  1919.39  1961.28  1978.82  1998.19
                             2017.11  2049.86  2103.98  2109.73  2117.43
                             2130.37  2159.58  2163.98  2172.34  2252.64
                             2494.22  4330.01  4368.80  4404.39  4410.06
                             4419.78  4459.11  4462.00  4468.73  4492.16
                             4497.76  4554.32  4591.09  4616.21

 Zero-point correction=                           0.219099 (Hartree/Particle)
 Thermal correction to Energy=                    0.231469
 Thermal correction to Enthalpy=                  0.232413
 Thermal correction to Gibbs Free Energy=         0.180525
 Sum of electronic and zero-point Energies=           -669.231773
 Sum of electronic and thermal Energies=              -669.219403
 Sum of electronic and thermal Enthalpies=            -669.218459
 Sum of electronic and thermal Free Energies=         -669.270347

                     E (Thermal)             CV                S
                      KCal/Mol        Cal/Mol-Kelvin    Cal/Mol-Kelvin
 Total                  145.249             47.869            109.209
 Electronic               0.000              0.000              0.000
 Translational            0.889              2.981             41.710
 Rotational               0.889              2.981             31.161
 Vibrational            143.472             41.907             36.338
 Vibration     1          0.596              1.976              4.691
 Vibration     2          0.599              1.964              3.948
 Vibration     3          0.603              1.954              3.578
 Vibration     4          0.617              1.907              2.730
 Vibration     5          0.624              1.884              2.473
 Vibration     6          0.630              1.864              2.307
 Vibration     7          0.637              1.844              2.158
 Vibration     8          0.663              1.761              1.722
 Vibration     9          0.677              1.721              1.568
 Vibration    10          0.711              1.622              1.275
 Vibration    11          0.723              1.587              1.192
 Vibration    12          0.750              1.513              1.039
 Vibration    13          0.765              1.472              0.966
 Vibration    14          0.799              1.387              0.832
 Vibration    15          0.841              1.283              0.696
 Vibration    16          0.857              1.246              0.653
 Vibration    17          0.907              1.137              0.541
 Vibration    18          0.922              1.105              0.512

 Optimization completed.
    -- Stationary point found.
 Normal termination of Gaussian 16 at Fri Jun 10 08:41:21 2022.
