 Gaussian 16, Revision A.03,
 Gaussian 16:  ES64L-G16RevA.03 25-Dec-2016

 ----------------------------------------------------------------------
 # Opt=(TS, CalcFC, noeigentest, Z-matrix, MaxStep=10) Field=read NoSym
 m B3LYP/Def2TZVP freq=noraman pop=none
 ----------------------------------------------------------------------

 -----------------
 ts_zmat_initalOpt
 -----------------
 Symbolic Z-matrix:
 Charge =  0 Multiplicity = 1

 SCF Done:  E(RB3LYP) =  -669.440881567     A.U. after   17 cycles
 SCF Done:  E(RB3LYP) =  -669.440992481     A.U. after   13 cycles
 SCF Done:  E(RB3LYP) =  -669.440992749     A.U. after    8 cycles
 Optimization completed.
    -- Stationary point found.
 Normal termination of Gaussian 16 at Fri Jun 10 04:44:47 2022.

 --------------------------------------------------------------------
 #N Geom=AllCheck Guess=TCheck SCRF=Check GenChk RB3LYP/def2TZVP Freq
 --------------------------------------------------------------------

 Structure from the checkpoint file:  "checkpoint.chk"
 -----------------
 ts_zmat_initalOpt
 -----------------
 Charge =  0 Multiplicity = 1

                          Input orientation:
 ---------------------------------------------------------------------
 Center     Atomic      Atomic             Coordinates (Angstroms)
 Number     Number       Type             X           Y           Z
 ---------------------------------------------------------------------
      1          6           0        0.000000    0.000000    0.000000
      2          6           0        0.000000    0.000000    1.399003
      3          6           0        1.222285    0.000000   -0.614416
      4          1           0       -0.897905   -0.235097   -0.555322
      5          6           0        2.422720    0.065699    0.255755
      6          1           0       -0.893784   -0.316970    1.924493
      7          6           0        0.973382    0.853417    2.157250
      8          1           0        1.314173   -0.091303   -1.687713
      9          6           0        2.633282   -1.315353    1.005234
     10          1           0        3.322533    0.260803   -0.326248
     11          6           0        2.213611    1.172057    1.307070
     12          1           0        1.246414    0.384044    3.103510
     13          1           0        0.442601    1.773550    2.428760
     14          6           0        1.390426   -1.948235    1.535227
     15          1           0        3.339531   -1.148871    1.816159
     16          1           0        3.063003   -2.004560    0.277036
     17          1           0        3.097885    1.246622    1.940826
     18          1           0        2.095491    2.131905    0.801801
     19          7           0        0.602723   -2.670852    0.685078
     20          6           0        1.250384   -2.209800    2.980065
     21          8           0        0.916609   -2.531568   -0.518715
     22          8           0        2.018620   -1.781161    3.817166
     23          8           0        0.172795   -2.956219    3.300613
     24          6           0        0.018851   -3.244719    4.694347
     25          1           0       -0.879459   -3.853178    4.766073
     26          1           0        0.881504   -3.792043    5.074824
     27          1           0       -0.095296   -2.327667    5.272704
 ---------------------------------------------------------------------

 SCF Done:  E(RB3LYP) =  -669.440992749     A.U. after    1 cycles

 Isotropic polarizability for W=    0.000000      138.05 Bohr**3.
 End of Minotr F.D. properties file   721 does not exist.

 ******    1 imaginary frequencies (negative Signs) ******

                      1                      2                      3
                      A                      A                      A
 Frequencies --   -249.9703                53.5604                85.4604
 Red. masses --      5.8717                 5.1650                 3.4955
 Frc consts  --      0.2162                 0.0087                 0.0150
 IR Inten    --     22.9862                 2.8910                 1.8661

                      4                      5                      6
                      A                      A                      A
 Frequencies --     96.7861               144.9386               173.1478
 Red. masses --      3.1711                 1.2658                 3.9348
 Frc consts  --      0.0175                 0.0157                 0.0695
 IR Inten    --      0.5415                 0.0776                 0.2740

                      7                      8                      9
                      A                      A                      A
 Frequencies --    185.7140               204.9091               257.3866
 Red. masses --      5.2294                 6.8498                 2.0929
 Frc consts  --      0.1063                 0.1695                 0.0817
 IR Inten    --     10.6954                18.0499                 3.0281

                     10                     11                     12
                      A                      A                      A
 Frequencies --    283.0224               330.9441               341.3914
 Red. masses --      3.8769                 5.4925                 4.5267
 Frc consts  --      0.1830                 0.3544                 0.3108
 IR Inten    --      3.3877                21.3761                 7.7805

                     13                     14                     15
                      A                      A                      A
 Frequencies --    387.3194               401.4367               447.0557
 Red. masses --      2.7436                 2.5370                 5.0504
 Frc consts  --      0.2425                 0.2409                 0.5947
 IR Inten    --      0.8546                 1.1972                 9.1946

                     16                     17                     18
                      A                      A                      A
 Frequencies --    493.7796               500.9689               557.8859
 Red. masses --      3.4978                10.2655                 3.7975
 Frc consts  --      0.5025                 1.5179                 0.6964
 IR Inten    --      1.7528                 0.8600                 2.0736

                     19                     20                     21
                      A                      A                      A
 Frequencies --    569.3706               653.9437               740.0153
 Red. masses --      5.8489                 4.1577                 3.7619
 Frc consts  --      1.1172                 1.0476                 1.2138
 IR Inten    --      4.3925                 1.2078                 2.0990

                     22                     23                     24
                      A                      A                      A
 Frequencies --    762.2988               780.0867               791.2865
 Red. masses --      1.5322                 3.5718                 2.5639
 Frc consts  --      0.5246                 1.2806                 0.9458
 IR Inten    --     12.3093                 6.4534                15.8550

                     25                     26                     27
                      A                      A                      A
 Frequencies --    804.4931               841.1323               856.3798
 Red. masses --      2.0389                 3.0789                 2.9867
 Frc consts  --      0.7775                 1.2834                 1.2905
 IR Inten    --      0.9007                 2.0697                 0.4628

                     28                     29                     30
                      A                      A                      A
 Frequencies --    903.6955               922.5673               960.3279
 Red. masses --      2.4043                 1.8750                 2.4227
 Frc consts  --      1.1569                 0.9403                 1.3164
 IR Inten    --     26.2803                 5.4090                10.4885

                     31                     32                     33
                      A                      A                      A
 Frequencies --    976.8719               984.7117              1002.5475
 Red. masses --      1.9144                 2.5660                 2.3826
 Frc consts  --      1.0763                 1.4660                 1.4110
 IR Inten    --      4.5539                 6.9538                 5.8559

                     34                     35                     36
                      A                      A                      A
 Frequencies --   1021.6911              1058.9723              1066.6207
 Red. masses --      2.5207                 2.1213                 2.0999
 Frc consts  --      1.5503                 1.4016                 1.4076
 IR Inten    --     17.7827                27.4018                 1.7369

                     37                     38                     39
                      A                      A                      A
 Frequencies --   1131.6336              1140.7962              1170.7086
 Red. masses --      1.9637                 1.8939                 1.0474
 Frc consts  --      1.4816                 1.4522                 0.8458
 IR Inten    --     76.3268                82.9309                 5.5110

                     40                     41                     42
                      A                      A                      A
 Frequencies --   1172.8080              1191.0508              1202.3817
 Red. masses --      1.2773                 1.1771                 1.7159
 Frc consts  --      1.0351                 0.9839                 1.4616
 IR Inten    --      0.8229                17.9828               247.9597

                     43                     44                     45
                      A                      A                      A
 Frequencies --   1210.8604              1225.5191              1247.6457
 Red. masses --      1.5169                 1.4414                 1.2777
 Frc consts  --      1.3104                 1.2754                 1.1718
 IR Inten    --     40.3728                 5.6520                23.3181

                     46                     47                     48
                      A                      A                      A
 Frequencies --   1303.2312              1322.5954              1334.5850
 Red. masses --      2.7651                 1.4896                 1.9657
 Frc consts  --      2.7669                 1.5353                 2.0629
 IR Inten    --    109.1480                33.9893               152.0564

                     49                     50                     51
                      A                      A                      A
 Frequencies --   1361.6807              1376.3308              1388.9350
 Red. masses --      1.3255                 1.7245                 1.7272
 Frc consts  --      1.4480                 1.9247                 1.9631
 IR Inten    --     10.8087                 7.8924                50.9062

                     52                     53                     54
                      A                      A                      A
 Frequencies --   1400.8115              1421.6292              1465.2660
 Red. masses --      4.9419                 1.7404                 1.2871
 Frc consts  --      5.7136                 2.0724                 1.6281
 IR Inten    --     80.4607                 2.1888                33.0754

                     55                     56                     57
                      A                      A                      A
 Frequencies --   1466.5613              1474.3729              1484.0445
 Red. masses --      1.2000                 1.2517                 1.0466
 Frc consts  --      1.5207                 1.6031                 1.3581
 IR Inten    --     18.4902                31.8659                 6.9268

                     58                     59                     60
                      A                      A                      A
 Frequencies --   1499.1257              1503.8492              1507.9029
 Red. masses --      1.0547                 1.1151                 1.7829
 Frc consts  --      1.3966                 1.4858                 2.3885
 IR Inten    --      8.6368                10.1909                 5.0895

                     61                     62                     63
                      A                      A                      A
 Frequencies --   1563.1321              1727.5238              3010.4167
 Red. masses --      3.7357                11.2355                 1.0732
 Frc consts  --      5.3779                19.7555                 5.7305
 IR Inten    --     36.4429               226.9368                 7.4526

                     64                     65                     66
                      A                      A                      A
 Frequencies --   3045.6299              3053.5192              3058.2757
 Red. masses --      1.0296                 1.0616                 1.0612
 Frc consts  --      5.6272                 5.8320                 5.8481
 IR Inten    --     47.1659                20.0868                10.3984

                     67                     68                     69
                      A                      A                      A
 Frequencies --   3071.5791              3089.2849              3095.4566
 Red. masses --      1.0890                 1.0863                 1.1029
 Frc consts  --      6.0536                 6.1080                 6.2264
 IR Inten    --      1.3386                25.6819                 9.8131

                     70                     71                     72
                      A                      A                      A
 Frequencies --   3111.2123              3125.5542              3142.8234
 Red. masses --      1.1062                 1.1020                 1.1055
 Frc consts  --      6.3087                 6.3427                 6.4337
 IR Inten    --     21.0833                 1.1324                20.7039

                     73                     74                     75
                      A                      A                      A
 Frequencies --   3167.9213              3190.2187              3210.7672
 Red. masses --      1.0883                 1.0903                 1.0962
 Frc consts  --      6.4352                 6.5377                 6.6581
 IR Inten    --      5.7225                 3.1900                 2.7817

 - Thermochemistry -
 -------------------
 Temperature   298.150 Kelvin.  Pressure   1.00000 Atm.
 Atom     1 has atomic number  6 and mass  12.00000

 Molecular mass:   195.08954 amu.
 Principal axes and moments of inertia in atomic units:
                           1         2         3
     Eigenvalues --  1536.203962996.264953478.60567
           X           -0.17168   0.26156   0.94980
           Y           -0.60895   0.72969  -0.31101
           Z            0.77441   0.63178  -0.03401
 This molecule is an asymmetric top.
 Rotational symmetry number  1.
 Warning -- assumption of classical behavior for rotation
           may cause significant error
 Rotational temperatures (Kelvin)      0.05638     0.02891     0.02490
 Rotational constants (GHZ):           1.17481     0.60233     0.51881
    1 imaginary frequencies ignored.
 Zero-point vibrational energy     576063.9 (Joules/Mol)
                                  137.68257 (Kcal/Mol)
 Warning -- explicit consideration of  18 degrees of freedom as
           vibrations may cause significant error
 Vibrational temperatures:     77.06   122.96   139.25   208.53   249.12
          (Kelvin)            267.20   294.82   370.32   407.21   476.15
                              491.19   557.27   577.58   643.21   710.44
                              720.78   802.67   819.20   940.88  1064.72
                             1096.78  1122.37  1138.48  1157.49  1210.20
                             1232.14  1300.22  1327.37  1381.70  1405.50
                             1416.78  1442.44  1469.99  1523.62  1534.63
                             1628.17  1641.35  1684.39  1687.41  1713.66
                             1729.96  1742.16  1763.25  1795.08  1875.06
                             1902.92  1920.17  1959.15  1980.23  1998.37
                             2015.46  2045.41  2108.19  2110.05  2121.29
                             2135.21  2156.91  2163.70  2169.54  2249.00
                             2485.52  4331.32  4381.98  4393.33  4400.18
                             4419.32  4444.79  4453.67  4476.34  4496.98
                             4521.82  4557.93  4590.01  4619.58

 Zero-point correction=                           0.219411 (Hartree/Particle)
 Thermal correction to Energy=                    0.231668
 Thermal correction to Enthalpy=                  0.232613
 Thermal correction to Gibbs Free Energy=         0.181048
 Sum of electronic and zero-point Energies=           -669.221582
 Sum of electronic and thermal Energies=              -669.209324
 Sum of electronic and thermal Enthalpies=            -669.208380
 Sum of electronic and thermal Free Energies=         -669.259945

                     E (Thermal)             CV                S
                      KCal/Mol        Cal/Mol-Kelvin    Cal/Mol-Kelvin
 Total                  145.374             47.657            108.528
 Electronic               0.000              0.000              0.000
 Translational            0.889              2.981             41.710
 Rotational               0.889              2.981             31.149
 Vibrational            143.597             41.695             35.669
 Vibration     1          0.596              1.976              4.681
 Vibration     2          0.601              1.959              3.761
 Vibration     3          0.603              1.951              3.518
 Vibration     4          0.616              1.908              2.738
 Vibration     5          0.627              1.876              2.401
 Vibration     6          0.632              1.859              2.270
 Vibration     7          0.640              1.833              2.089
 Vibration     8          0.667              1.750              1.679
 Vibration     9          0.682              1.705              1.515
 Vibration    10          0.713              1.614              1.255
 Vibration    11          0.721              1.593              1.206
 Vibration    12          0.756              1.497              1.010
 Vibration    13          0.767              1.467              0.957
 Vibration    14          0.806              1.367              0.805
 Vibration    15          0.849              1.264              0.674
 Vibration    16          0.856              1.248              0.656
 Vibration    17          0.913              1.122              0.528
 Vibration    18          0.925              1.098              0.505

 Optimization completed.
    -- Stationary point found.
 Normal termination of Gaussian 16 at Fri Jun 10 05:27:15 2022.
