 Gaussian 16, Revision A.03,
 Gaussian 16:  ES64L-G16RevA.03 25-Dec-2016

 ----------------------------------------------------------------------
 # Opt=(Z-matrix, MaxStep=10) B3LYP/Def2TZVP Field=read NoSymm freq=nor
 aman pop=none
 ----------------------------------------------------------------------

 ------------------
 int_zmat_initalOpt
 ------------------
 Symbolic Z-matrix:
 Charge =  0 Multiplicity = 1

 SCF Done:  E(RB3LYP) =  -269.422819378     A.U. after   13 cycles
 SCF Done:  E(RB3LYP) =  -269.422829035     A.U. after    8 cycles
 SCF Done:  E(RB3LYP) =  -269.422833509     A.U. after    8 cycles
 SCF Done:  E(RB3LYP) =  -269.422834737     A.U. after    8 cycles
 SCF Done:  E(RB3LYP) =  -269.422835234     A.U. after    8 cycles
 Optimization completed.
    -- Stationary point found.
 Normal termination of Gaussian 16 at Fri Jun 10 11:07:58 2022.

 --------------------------------------------------------------------
 #N Geom=AllCheck Guess=TCheck SCRF=Check GenChk RB3LYP/def2TZVP Freq
 --------------------------------------------------------------------

 Structure from the checkpoint file:  "checkpoint.chk"
 ------------------
 int_zmat_initalOpt
 ------------------
 Charge =  0 Multiplicity = 1

                          Input orientation:
 ---------------------------------------------------------------------
 Center     Atomic      Atomic             Coordinates (Angstroms)
 Number     Number       Type             X           Y           Z
 ---------------------------------------------------------------------
      1          6           0        0.000000    0.000000    0.000000
      2          6           0        0.000000    0.000000    1.336100
      3          6           0        1.268504    0.000000   -0.711239
      4          1           0       -0.923722    0.068497   -0.561220
      5          1           0       -0.907655    0.072503    1.920540
      6          1           0        1.316990   -0.115816   -1.783935
      7          6           0        2.378952    0.301408   -0.021284
      8          6           0        1.315274   -0.130230    2.048142
      9          1           0        3.344368    0.494812   -0.471603
     10          8           0        2.392163    0.498578    1.315106
     11          1           0        1.309696    0.354618    3.022523
     12          1           0        1.585068   -1.187882    2.193241
 ---------------------------------------------------------------------

 SCF Done:  E(RB3LYP) =  -269.422835234     A.U. after    1 cycles

 Isotropic polarizability for W=    0.000000       59.47 Bohr**3.
 End of Minotr F.D. properties file   721 does not exist.

                      1                      2                      3
                      A                      A                      A
 Frequencies --    173.4094               334.0854               501.3885
 Red. masses --      2.2112                 2.7399                 3.1842
 Frc consts  --      0.0392                 0.1802                 0.4716
 IR Inten    --      2.4312                12.4872                15.0311

                      4                      5                      6
                      A                      A                      A
 Frequencies --    572.5098               616.7849               723.3506
 Red. masses --      3.0862                 4.8079                 1.5166
 Frc consts  --      0.5960                 1.0776                 0.4675
 IR Inten    --     14.1302                 0.7013                48.7829

                      7                      8                      9
                      A                      A                      A
 Frequencies --    769.0695               861.7225               924.6293
 Red. masses --      1.3504                 3.7689                 1.4069
 Frc consts  --      0.4706                 1.6489                 0.7087
 IR Inten    --     14.2331                12.2897                 0.8279

                     10                     11                     12
                      A                      A                      A
 Frequencies --    952.0485               971.5520               976.8393
 Red. masses --      2.5446                 2.5615                 1.7157
 Frc consts  --      1.3589                 1.4245                 0.9646
 IR Inten    --      9.2000                23.5211                 2.2703

                     13                     14                     15
                      A                      A                      A
 Frequencies --    994.4446              1081.8084              1098.1896
 Red. masses --      2.1707                 2.2736                 1.9720
 Frc consts  --      1.2648                 1.5677                 1.4012
 IR Inten    --      5.1226                 4.5013                57.3759

                     16                     17                     18
                      A                      A                      A
 Frequencies --   1189.2117              1247.8634              1279.4285
 Red. masses --      1.1125                 1.4449                 1.1378
 Frc consts  --      0.9270                 1.3257                 1.0974
 IR Inten    --      0.6075                47.3188                 9.4051

                     19                     20                     21
                      A                      A                      A
 Frequencies --   1370.4635              1416.1693              1448.8951
 Red. masses --      1.2138                 1.5449                 1.7635
 Frc consts  --      1.3432                 1.8255                 2.1812
 IR Inten    --      0.5730                10.2634                 7.5986

                     22                     23                     24
                      A                      A                      A
 Frequencies --   1501.3642              1621.0860              1693.1089
 Red. masses --      1.1089                 5.7612                 5.4465
 Frc consts  --      1.4727                 8.9202                 9.1989
 IR Inten    --      2.2668                47.5066                29.7501

                     25                     26                     27
                      A                      A                      A
 Frequencies --   2941.8765              3107.1991              3171.2050
 Red. masses --      1.0736                 1.0894                 1.0861
 Frc consts  --      5.4745                 6.1969                 6.4354
 IR Inten    --     83.3290                16.0528                 6.5764

                     28                     29                     30
                      A                      A                      A
 Frequencies --   3185.0120              3195.2314              3214.4836
 Red. masses --      1.0887                 1.0966                 1.0971
 Frc consts  --      6.5070                 6.5965                 6.6789
 IR Inten    --      5.7644                10.3009                13.4843

 - Thermochemistry -
 -------------------
 Temperature   298.150 Kelvin.  Pressure   1.00000 Atm.
 Atom     1 has atomic number  6 and mass  12.00000

 Molecular mass:    82.04186 amu.
 Principal axes and moments of inertia in atomic units:
                           1         2         3
     Eigenvalues --   323.37913 335.74073 631.93202
           X            0.92994  -0.33252  -0.15697
           Y            0.14279  -0.06683   0.98749
           Z            0.33885   0.94073   0.01467
 This molecule is an asymmetric top.
 Rotational symmetry number  1.
 Rotational temperatures (Kelvin)      0.26784     0.25798     0.13706
 Rotational constants (GHZ):           5.58088     5.37540     2.85591
 Zero-point vibrational energy     258001.2 (Joules/Mol)
                                   61.66376 (Kcal/Mol)
 Warning -- explicit consideration of   5 degrees of freedom as
           vibrations may cause significant error
 Vibrational temperatures:    249.50   480.67   721.39   823.71   887.42
          (Kelvin)           1040.74  1106.52  1239.83  1330.34  1369.79
                             1397.85  1405.45  1430.78  1556.48  1580.05
                             1711.01  1795.40  1840.81  1971.79  2037.55
                             2084.64  2160.13  2332.38  2436.01  4232.70
                             4470.57  4562.66  4582.52  4597.23  4624.92

 Zero-point correction=                           0.098267 (Hartree/Particle)
 Thermal correction to Energy=                    0.103226
 Thermal correction to Enthalpy=                  0.104170
 Thermal correction to Gibbs Free Energy=         0.070148
 Sum of electronic and zero-point Energies=           -269.324568
 Sum of electronic and thermal Energies=              -269.319609
 Sum of electronic and thermal Enthalpies=            -269.318665
 Sum of electronic and thermal Free Energies=         -269.352687

                     E (Thermal)             CV                S
                      KCal/Mol        Cal/Mol-Kelvin    Cal/Mol-Kelvin
 Total                   64.775             18.509             71.606
 Electronic               0.000              0.000              0.000
 Translational            0.889              2.981             39.128
 Rotational               0.889              2.981             25.731
 Vibrational             62.998             12.547              6.746
 Vibration     1          0.627              1.875              2.398
 Vibration     2          0.716              1.607              1.240
 Vibration     3          0.857              1.247              0.655
 Vibration     4          0.929              1.091              0.499
 Vibration     5          0.976              0.996              0.422

                       ! Non-Optimized Parameters !
 Normal termination of Gaussian 16 at Fri Jun 10 11:10:35 2022.
