 Gaussian 16, Revision A.03,
 Gaussian 16:  ES64L-G16RevA.03 25-Dec-2016

 ----------------------------------------------------------------------
 # Opt=(Z-matrix, MaxStep=10) B3LYP/Def2TZVP geom=allcheckpoint guess=r
 ead Field=read NoSymm freq=noraman pop=none
 ----------------------------------------------------------------------

 Structure from the checkpoint file:  "checkpoint.chk"
 ------------------
 int_zmat_initalOpt
 ------------------
 Charge =  0 Multiplicity = 1

 SCF Done:  E(RB3LYP) =  -269.426542027     A.U. after   10 cycles
 SCF Done:  E(RB3LYP) =  -269.426551826     A.U. after    9 cycles
 SCF Done:  E(RB3LYP) =  -269.426557696     A.U. after    9 cycles
 SCF Done:  E(RB3LYP) =  -269.426561227     A.U. after    8 cycles
 SCF Done:  E(RB3LYP) =  -269.426562778     A.U. after    9 cycles
 SCF Done:  E(RB3LYP) =  -269.426563192     A.U. after    8 cycles
 Optimization completed.
    -- Stationary point found.
 Normal termination of Gaussian 16 at Fri Jun 10 12:02:24 2022.

 --------------------------------------------------------------------
 #N Geom=AllCheck Guess=TCheck SCRF=Check GenChk RB3LYP/def2TZVP Freq
 --------------------------------------------------------------------

 Structure from the checkpoint file:  "checkpoint.chk"
 ------------------
 int_zmat_initalOpt
 ------------------
 Charge =  0 Multiplicity = 1

                          Input orientation:
 ---------------------------------------------------------------------
 Center     Atomic      Atomic             Coordinates (Angstroms)
 Number     Number       Type             X           Y           Z
 ---------------------------------------------------------------------
      1          6           0        0.000000    0.000000    0.000000
      2          6           0        0.000000    0.000000    1.335106
      3          6           0        1.268581    0.000000   -0.715581
      4          1           0       -0.927143    0.070699   -0.555259
      5          1           0       -0.909246    0.071012    1.917340
      6          1           0        1.312759   -0.086648   -1.792490
      7          6           0        2.386916    0.259766   -0.021290
      8          6           0        1.303912   -0.115344    2.070007
      9          1           0        3.356474    0.434097   -0.474058
     10          8           0        2.418152    0.432293    1.311385
     11          1           0        1.297357    0.435944    3.007902
     12          1           0        1.541761   -1.165050    2.295372
 ---------------------------------------------------------------------

 SCF Done:  E(RB3LYP) =  -269.426563192     A.U. after    1 cycles

 Isotropic polarizability for W=    0.000000       59.60 Bohr**3.
 End of Minotr F.D. properties file   721 does not exist.

                      1                      2                      3
                      A                      A                      A
 Frequencies --    140.6170               330.5856               503.6984
 Red. masses --      2.2749                 2.6479                 3.4860
 Frc consts  --      0.0265                 0.1705                 0.5211
 IR Inten    --      2.4513                13.2886                14.1432

                      4                      5                      6
                      A                      A                      A
 Frequencies --    569.1029               618.3463               720.1115
 Red. masses --      3.0169                 5.0118                 1.3911
 Frc consts  --      0.5757                 1.1290                 0.4250
 IR Inten    --     13.3251                 1.1505                59.0487

                      7                      8                      9
                      A                      A                      A
 Frequencies --    750.0444               850.8043               902.9310
 Red. masses --      1.4560                 4.1376                 1.3529
 Frc consts  --      0.4826                 1.7647                 0.6499
 IR Inten    --      0.7851                17.3578                 1.0749

                     10                     11                     12
                      A                      A                      A
 Frequencies --    950.7850               966.8543               980.3921
 Red. masses --      2.4780                 2.4449                 2.0492
 Frc consts  --      1.3198                 1.3466                 1.1605
 IR Inten    --      9.6544                19.2448                 8.6820

                     13                     14                     15
                      A                      A                      A
 Frequencies --    994.4021              1074.9068              1094.8782
 Red. masses --      1.8755                 2.2996                 1.8442
 Frc consts  --      1.0927                 1.5654                 1.3025
 IR Inten    --      3.7004                 4.6290                54.1880

                     16                     17                     18
                      A                      A                      A
 Frequencies --   1194.9667              1249.6506              1278.1229
 Red. masses --      1.1003                 1.4147                 1.1883
 Frc consts  --      0.9257                 1.3017                 1.1437
 IR Inten    --      1.2856                45.4526                18.7644

                     19                     20                     21
                      A                      A                      A
 Frequencies --   1371.1098              1420.6899              1449.8269
 Red. masses --      1.2137                 1.5403                 1.7860
 Frc consts  --      1.3443                 1.8317                 2.2119
 IR Inten    --      0.2538                 8.0894                 7.6272

                     22                     23                     24
                      A                      A                      A
 Frequencies --   1503.7851              1629.1495              1694.0302
 Red. masses --      1.1057                 5.8471                 5.5158
 Frc consts  --      1.4731                 9.1436                 9.3261
 IR Inten    --      3.6525                48.2544                28.0237

                     25                     26                     27
                      A                      A                      A
 Frequencies --   2959.6942              3117.9081              3160.0925
 Red. masses --      1.0736                 1.0905                 1.0863
 Frc consts  --      5.5409                 6.2458                 6.3913
 IR Inten    --     72.5830                 3.9109                 7.6711

                     28                     29                     30
                      A                      A                      A
 Frequencies --   3170.9700              3193.7667              3200.8542
 Red. masses --      1.0881                 1.0946                 1.0978
 Frc consts  --      6.4460                 6.5784                 6.6270
 IR Inten    --     22.5504                32.7646                 8.0027

 - Thermochemistry -
 -------------------
 Temperature   298.150 Kelvin.  Pressure   1.00000 Atm.
 Atom     1 has atomic number  6 and mass  12.00000

 Molecular mass:    82.04186 amu.
 Principal axes and moments of inertia in atomic units:
                           1         2         3
     Eigenvalues --   325.20483 336.10265 638.09442
           X            0.92811  -0.34680  -0.13545
           Y            0.12178  -0.06101   0.99068
           Z            0.35183   0.93595   0.01439
 This molecule is an asymmetric top.
 Rotational symmetry number  1.
 Rotational temperatures (Kelvin)      0.26634     0.25770     0.13574
 Rotational constants (GHZ):           5.54955     5.36961     2.82833
 Zero-point vibrational energy     257454.8 (Joules/Mol)
                                   61.53317 (Kcal/Mol)
 Warning -- explicit consideration of   5 degrees of freedom as
           vibrations may cause significant error
 Vibrational temperatures:    202.32   475.64   724.71   818.81   889.66
          (Kelvin)           1036.08  1079.15  1224.12  1299.12  1367.97
                             1391.09  1410.57  1430.72  1546.55  1575.29
                             1719.29  1797.97  1838.93  1972.72  2044.06
                             2085.98  2163.61  2343.98  2437.33  4258.34
                             4485.97  4546.67  4562.32  4595.12  4605.32

 Zero-point correction=                           0.098059 (Hartree/Particle)
 Thermal correction to Energy=                    0.103092
 Thermal correction to Enthalpy=                  0.104037
 Thermal correction to Gibbs Free Energy=         0.069791
 Sum of electronic and zero-point Energies=           -269.328504
 Sum of electronic and thermal Energies=              -269.323471
 Sum of electronic and thermal Enthalpies=            -269.322527
 Sum of electronic and thermal Free Energies=         -269.356772

                     E (Thermal)             CV                S
                      KCal/Mol        Cal/Mol-Kelvin    Cal/Mol-Kelvin
 Total                   64.692             18.640             72.077
 Electronic               0.000              0.000              0.000
 Translational            0.889              2.981             39.128
 Rotational               0.889              2.981             25.748
 Vibrational             62.914             12.679              7.201
 Vibration     1          0.615              1.913              2.795
 Vibration     2          0.713              1.614              1.257
 Vibration     3          0.859              1.242              0.649
 Vibration     4          0.925              1.098              0.506
 Vibration     5          0.978              0.993              0.419

 Optimization completed.
    -- Stationary point found.
 Normal termination of Gaussian 16 at Fri Jun 10 12:05:00 2022.
