 Gaussian 16, Revision A.03,
 Gaussian 16:  ES64L-G16RevA.03 25-Dec-2016

 ----------------------------------------------------------------------
 # Opt=(TS, CalcFC, noeigentest, Z-matrix, MaxStep=10) geom=allcheckpoi
 nt guess=read Field=read NoSymm B3LYP/Def2TZVP freq=noraman pop=none
 ----------------------------------------------------------------------

 Structure from the checkpoint file:  "checkpoint.chk"
 -----------------
 ts_zmat_initalOpt
 -----------------
 Charge =  0 Multiplicity = 1

 SCF Done:  E(RB3LYP) =  -269.396008412     A.U. after   10 cycles
 SCF Done:  E(RB3LYP) =  -269.396029268     A.U. after   12 cycles
 Optimization completed.
    -- Stationary point found.
 Normal termination of Gaussian 16 at Fri Jun 10 11:43:45 2022.

 --------------------------------------------------------------------
 #N Geom=AllCheck Guess=TCheck SCRF=Check GenChk RB3LYP/def2TZVP Freq
 --------------------------------------------------------------------

 Structure from the checkpoint file:  "checkpoint.chk"
 -----------------
 ts_zmat_initalOpt
 -----------------
 Charge =  0 Multiplicity = 1

                          Input orientation:
 ---------------------------------------------------------------------
 Center     Atomic      Atomic             Coordinates (Angstroms)
 Number     Number       Type             X           Y           Z
 ---------------------------------------------------------------------
      1          6           0        0.000000    0.000000    0.000000
      2          6           0        0.000000    0.000000    1.383785
      3          6           0        1.208767    0.000000   -0.714542
      4          1           0       -0.922200    0.161650   -0.548431
      5          1           0       -0.817780    0.433954    1.944885
      6          1           0        1.191557    0.015634   -1.795441
      7          6           0        2.368561    0.489372   -0.093186
      8          6           0        1.166399   -0.426595    2.017158
      9          1           0        3.065128    1.030279   -0.745940
     10          8           0        2.647397    0.518782    1.142345
     11          1           0        1.332417   -0.218319    3.066794
     12          1           0        1.655939   -1.315689    1.643839
 ---------------------------------------------------------------------

 SCF Done:  E(RB3LYP) =  -269.396029268     A.U. after    1 cycles

 Isotropic polarizability for W=    0.000000       65.07 Bohr**3.
 End of Minotr F.D. properties file   721 does not exist.

 ******    1 imaginary frequencies (negative Signs) ******

                      1                      2                      3
                      A                      A                      A
 Frequencies --   -527.3542               246.4594               374.0390
 Red. masses --      5.6664                 2.8870                 2.5692
 Frc consts  --      0.9285                 0.1033                 0.2118
 IR Inten    --     43.1683                 4.9076                10.7884

                      4                      5                      6
                      A                      A                      A
 Frequencies --    422.3657               572.5441               590.4263
 Red. masses --      4.2723                 2.8544                 3.5121
 Frc consts  --      0.4490                 0.5513                 0.7214
 IR Inten    --      5.1372                23.2835                 4.5616

                      7                      8                      9
                      A                      A                      A
 Frequencies --    724.4434               793.2091               883.7157
 Red. masses --      1.2551                 1.3822                 2.0360
 Frc consts  --      0.3881                 0.5124                 0.9368
 IR Inten    --     45.3605                24.8340                20.9739

                     10                     11                     12
                      A                      A                      A
 Frequencies --    949.6601               960.5478               981.8498
 Red. masses --      1.6418                 1.4486                 1.4209
 Frc consts  --      0.8724                 0.7875                 0.8070
 IR Inten    --     41.5658                12.6645                 6.7649

                     13                     14                     15
                      A                      A                      A
 Frequencies --   1019.3301              1043.6810              1100.8751
 Red. masses --      3.5615                 1.7488                 1.3332
 Frc consts  --      2.1803                 1.1223                 0.9519
 IR Inten    --     10.7234                 6.4272                18.9839

                     16                     17                     18
                      A                      A                      A
 Frequencies --   1118.4671              1180.4085              1245.8124
 Red. masses --      1.5770                 1.2246                 1.3547
 Frc consts  --      1.1623                 1.0053                 1.2388
 IR Inten    --      2.2537                14.4281                 3.2505

                     19                     20                     21
                      A                      A                      A
 Frequencies --   1340.2417              1407.4528              1438.8588
 Red. masses --      1.3859                 1.8215                 1.8552
 Frc consts  --      1.4667                 2.1259                 2.2630
 IR Inten    --     46.8191                55.3107                64.4718

                     22                     23                     24
                      A                      A                      A
 Frequencies --   1495.3570              1551.1655              1614.5961
 Red. masses --      1.7197                 2.2086                 5.4014
 Frc consts  --      2.2656                 3.1311                 8.2964
 IR Inten    --      8.1125                21.7045               123.5044

                     25                     26                     27
                      A                      A                      A
 Frequencies --   3017.6774              3138.8433              3157.4812
 Red. masses --      1.0848                 1.0569                 1.0877
 Frc consts  --      5.8203                 6.1353                 6.3889
 IR Inten    --     57.1647                18.4763                 3.0543

                     28                     29                     30
                      A                      A                      A
 Frequencies --   3181.5466              3199.0584              3222.6062
 Red. masses --      1.0930                 1.0918                 1.1175
 Frc consts  --      6.5183                 6.5830                 6.8376
 IR Inten    --      3.3763                 4.7441                 7.0240

 - Thermochemistry -
 -------------------
 Temperature   298.150 Kelvin.  Pressure   1.00000 Atm.
 Atom     1 has atomic number  6 and mass  12.00000

 Molecular mass:    82.04186 amu.
 Principal axes and moments of inertia in atomic units:
                           1         2         3
     Eigenvalues --   324.83235 385.99024 664.66413
           X            0.93079   0.30883  -0.19561
           Y            0.22274  -0.05481   0.97334
           Z           -0.28987   0.94954   0.11981
 This molecule is an asymmetric top.
 Rotational symmetry number  1.
 Rotational temperatures (Kelvin)      0.26664     0.22439     0.13031
 Rotational constants (GHZ):           5.55592     4.67561     2.71527
    1 imaginary frequencies ignored.
 Zero-point vibrational energy     251052.6 (Joules/Mol)
                                   60.00301 (Kcal/Mol)
 Warning -- explicit consideration of   5 degrees of freedom as
           vibrations may cause significant error
 Vibrational temperatures:    354.60   538.16   607.69   823.76   849.49
          (Kelvin)           1042.31  1141.25  1271.47  1366.35  1382.01
                             1412.66  1466.59  1501.62  1583.91  1609.22
                             1698.34  1792.45  1928.31  2025.01  2070.20
                             2151.49  2231.78  2323.04  4341.76  4516.10
                             4542.91  4577.54  4602.73  4636.61

 Zero-point correction=                           0.095621 (Hartree/Particle)
 Thermal correction to Energy=                    0.100458
 Thermal correction to Enthalpy=                  0.101402
 Thermal correction to Gibbs Free Energy=         0.067604
 Sum of electronic and zero-point Energies=           -269.300408
 Sum of electronic and thermal Energies=              -269.295571
 Sum of electronic and thermal Enthalpies=            -269.294627
 Sum of electronic and thermal Free Energies=         -269.328425

                     E (Thermal)             CV                S
                      KCal/Mol        Cal/Mol-Kelvin    Cal/Mol-Kelvin
 Total                   63.038             18.185             71.135
 Electronic               0.000              0.000              0.000
 Translational            0.889              2.981             39.128
 Rotational               0.889              2.981             25.925
 Vibrational             61.261             12.223              6.082
 Vibration     1          0.661              1.769              1.756
 Vibration     2          0.745              1.525              1.063
 Vibration     3          0.785              1.422              0.884
 Vibration     4          0.929              1.091              0.499
 Vibration     5          0.948              1.052              0.466

 Optimization completed.
    -- Stationary point found.
 Normal termination of Gaussian 16 at Fri Jun 10 11:47:11 2022.
