 Gaussian 16, Revision A.03,
 Gaussian 16:  ES64L-G16RevA.03 25-Dec-2016

 --------------------------
 # sp B3LYP/Def2TZVP NoSymm
 --------------------------

 ---------------------------
 ts_initalOpt_zmat_AlignedSp
 ---------------------------
 Symbolic Z-matrix:
 Charge =  0 Multiplicity = 1

                          Input orientation:
 ---------------------------------------------------------------------
 Center     Atomic      Atomic             Coordinates (Angstroms)
 Number     Number       Type             X           Y           Z
 ---------------------------------------------------------------------
      1          6           0        0.000000    0.000000    0.000000
      2          6           0        0.000000    0.000000    1.415609
      3          6           0        1.155396    0.000000   -0.819267
      4          7           0       -1.285150    0.201737   -0.400515
      5          6           0        2.304179    0.542476   -0.308748
      6          1           0        0.672057   -0.651772    1.960639
      7          1           0        1.100438   -0.282147   -1.862018
      8          6           0       -1.366183    0.217140    1.829828
      9          6           0       -2.115115    0.348372    0.706419
     10          1           0       -1.557398    0.399041   -1.348647
     11          6           0        2.486388    1.136742    0.963427
     12          1           0        3.159947    0.606639   -0.971384
     13          1           0       -1.729964    0.252718    2.842724
     14          1           0       -3.168461    0.532981    0.579617
     15          6           0        1.559845    1.266609    1.972352
     16          1           0        3.370513    1.745908    1.123506
     17          8           0        1.381984    1.660277    3.069856
 ---------------------------------------------------------------------

 SCF Done:  E(RB3LYP) =  -439.135086287     A.U. after   15 cycles

 Alpha  occ. eigenvalues --  -19.14303 -14.37915 -10.27785 -10.22925 -10.21405
 Alpha  occ. eigenvalues --  -10.19272 -10.18027 -10.17577 -10.17044 -10.16967
 Alpha  occ. eigenvalues --   -1.07474  -1.00024  -0.83058  -0.79474  -0.75550
 Alpha  occ. eigenvalues --   -0.71101  -0.61853  -0.61368  -0.59807  -0.53842
 Alpha  occ. eigenvalues --   -0.49970  -0.48997  -0.46576  -0.45690  -0.44302
 Alpha  occ. eigenvalues --   -0.43481  -0.41931  -0.40199  -0.39193  -0.38068
 Alpha  occ. eigenvalues --   -0.36778  -0.32321  -0.26700  -0.24716  -0.19268
 Alpha virt. eigenvalues --   -0.05933  -0.02090   0.01907   0.02972   0.05556
 Alpha virt. eigenvalues --    0.06039   0.07350   0.08365   0.09108   0.10872
 Alpha virt. eigenvalues --    0.11328   0.12274   0.12996   0.14630   0.15827

 Mulliken charges:
               1
     1  C    0.249101
     2  C   -0.190242
     3  C   -0.281694
     4  N   -0.245951
     5  C   -0.018929
     6  H    0.134681
     7  H    0.105737
     8  C   -0.153289
     9  C   -0.039457
    10  H    0.218930
    11  C   -0.267570
    12  H    0.112566
    13  H    0.125796
    14  H    0.139102
    15  C    0.205934
    16  H    0.113584
    17  O   -0.208299
 Sum of Mulliken charges =  -0.00000

 Dipole moment (field-independent basis, Debye):
    X=             -2.1348    Y=             -0.7753    Z=             -3.4298  Tot=              4.1136
 Quadrupole moment (field-independent basis, Debye-Ang):
   XX=            -51.9328   YY=            -63.2883   ZZ=            -62.3248
   XY=             -1.6330   XZ=             -2.4859   YZ=             -5.6558

 Normal termination of Gaussian 16 at Fri Jun 10 11:15:33 2022.
