 Gaussian 16, Revision A.03,
 Gaussian 16:  ES64L-G16RevA.03 25-Dec-2016

 ----------------------------------------------------------------------
 # Opt=(Z-matrix, MaxStep=10) B3LYP/Def2TZVP Field=read NoSymm freq=nor
 aman pop=none
 ----------------------------------------------------------------------

 ------------------
 int_zmat_initalOpt
 ------------------
 Symbolic Z-matrix:
 Charge =  0 Multiplicity = 1

 SCF Done:  E(RB3LYP) =  -822.529565698     A.U. after   17 cycles
 SCF Done:  E(RB3LYP) =  -822.529590456     A.U. after    9 cycles
 SCF Done:  E(RB3LYP) =  -822.529595133     A.U. after    9 cycles
 SCF Done:  E(RB3LYP) =  -822.529597214     A.U. after    8 cycles
 SCF Done:  E(RB3LYP) =  -822.529597824     A.U. after    8 cycles
 Optimization completed.
    -- Stationary point found.
 Normal termination of Gaussian 16 at Fri Jun 10 11:40:23 2022.

 --------------------------------------------------------------------
 #N Geom=AllCheck Guess=TCheck SCRF=Check GenChk RB3LYP/def2TZVP Freq
 --------------------------------------------------------------------

 Structure from the checkpoint file:  "checkpoint.chk"
 ------------------
 int_zmat_initalOpt
 ------------------
 Charge =  0 Multiplicity = 1

                          Input orientation:
 ---------------------------------------------------------------------
 Center     Atomic      Atomic             Coordinates (Angstroms)
 Number     Number       Type             X           Y           Z
 ---------------------------------------------------------------------
      1          6           0        0.000000    0.000000    0.000000
      2          6           0        0.000000    0.000000    1.388181
      3         16           0        1.597069    0.000000   -0.861099
      4          6           0       -1.190021   -0.073764   -0.716910
      5          6           0        1.580156    1.809905   -1.321122
      6          8           0        2.648218   -0.157649    0.175373
      7          1           0        0.947393    0.023604    1.911856
      8          6           0       -1.212717   -0.049029    2.067765
      9          6           0       -2.397635   -0.118747   -0.031066
     10          1           0       -1.175976   -0.110199   -1.800384
     11          6           0        2.781262    2.144245   -2.134670
     12          1           0        0.646988    1.974043   -1.864228
     13          1           0        1.556112    2.344936   -0.370976
     14          1           0       -1.220590   -0.051338    3.150589
     15          6           0       -2.409330   -0.104183    1.361107
     16          1           0       -3.328066   -0.177118   -0.582358
     17          6           0        3.850298    2.771275   -1.658451
     18          1           0        2.770742    1.813715   -3.169144
     19          1           0       -3.350910   -0.149701    1.894116
     20          1           0        4.711530    2.971480   -2.282215
     21          1           0        3.905946    3.096652   -0.626519
 ---------------------------------------------------------------------

 SCF Done:  E(RB3LYP) =  -822.529597824     A.U. after    1 cycles

 Isotropic polarizability for W=    0.000000      131.03 Bohr**3.
 End of Minotr F.D. properties file   721 does not exist.

                      1                      2                      3
                      A                      A                      A
 Frequencies --     41.6317                53.0802                71.8927
 Red. masses --      4.3264                 3.0738                 3.2730
 Frc consts  --      0.0044                 0.0051                 0.0100
 IR Inten    --      0.6924                 0.1570                 2.3534

                      4                      5                      6
                      A                      A                      A
 Frequencies --     94.1715               190.0652               214.4500
 Red. masses --      3.3689                 5.6508                 3.6361
 Frc consts  --      0.0176                 0.1203                 0.0985
 IR Inten    --      0.4270                 4.6755                 1.5579

                      7                      8                      9
                      A                      A                      A
 Frequencies --    257.8193               310.9354               366.8431
 Red. masses --      3.4911                 5.4553                 4.8119
 Frc consts  --      0.1367                 0.3107                 0.3815
 IR Inten    --      0.2275                 2.6853                 4.9313

                     10                     11                     12
                      A                      A                      A
 Frequencies --    411.6754               416.4641               471.4117
 Red. masses --      2.8934                 2.1065                 4.4189
 Frc consts  --      0.2889                 0.2153                 0.5786
 IR Inten    --      0.3523                 3.6281                 9.3197

                     13                     14                     15
                      A                      A                      A
 Frequencies --    511.3353               542.5082               629.7545
 Red. masses --      4.9389                 2.5633                 6.4284
 Frc consts  --      0.7608                 0.4445                 1.5021
 IR Inten    --     15.9245                34.4131                 0.0154

                     16                     17                     18
                      A                      A                      A
 Frequencies --    697.3656               707.2828               729.7746
 Red. masses --      5.7492                 2.3051                 1.9289
 Frc consts  --      1.6473                 0.6794                 0.6052
 IR Inten    --      0.8034                30.0117                 8.9975

                     19                     20                     21
                      A                      A                      A
 Frequencies --    766.7226               863.8367               875.8629
 Red. masses --      1.7398                 1.2478                 1.5394
 Frc consts  --      0.6026                 0.5486                 0.6958
 IR Inten    --     36.1157                 0.2431                 8.3607

                     22                     23                     24
                      A                      A                      A
 Frequencies --    933.9433               952.2237               965.2378
 Red. masses --      1.4088                 2.1544                 1.2886
 Frc consts  --      0.7240                 1.1509                 0.7074
 IR Inten    --      0.7466                 1.4561                 0.1413

                     25                     26                     27
                      A                      A                      A
 Frequencies --    974.6998               997.3201              1017.9314
 Red. masses --      1.3192                 1.3052                 6.0222
 Frc consts  --      0.7384                 0.7649                 3.6766
 IR Inten    --     40.6468                 0.3295                 1.0460

                     28                     29                     30
                      A                      A                      A
 Frequencies --   1020.9755              1044.8448              1077.1167
 Red. masses --      1.1228                 2.7602                 1.5545
 Frc consts  --      0.6896                 1.7754                 1.0626
 IR Inten    --     11.4103                 6.0826                21.7708

                     31                     32                     33
                      A                      A                      A
 Frequencies --   1081.4662              1097.9780              1127.0478
 Red. masses --      2.5242                 1.7517                 5.5193
 Frc consts  --      1.7394                 1.2442                 4.1307
 IR Inten    --     10.1664                 8.5579                78.5493

                     34                     35                     36
                      A                      A                      A
 Frequencies --   1182.1578              1196.8777              1212.2765
 Red. masses --      1.1297                 1.1611                 1.3906
 Frc consts  --      0.9302                 0.9800                 1.2041
 IR Inten    --      0.0800                 1.4518                 0.6313

                     37                     38                     39
                      A                      A                      A
 Frequencies --   1226.3132              1326.7557              1334.8896
 Red. masses --      1.3080                 3.1003                 1.2510
 Frc consts  --      1.1590                 3.2154                 1.3134
 IR Inten    --      5.1620                 0.2808                 2.5878

                     40                     41                     42
                      A                      A                      A
 Frequencies --   1349.1025              1437.5678              1467.6509
 Red. masses --      1.7499                 1.1113                 1.1900
 Frc consts  --      1.8765                 1.3531                 1.5103
 IR Inten    --      2.9802                 4.6611                 6.4069

                     43                     44                     45
                      A                      A                      A
 Frequencies --   1477.7664              1513.5187              1623.3934
 Red. masses --      2.1194                 2.0247                 5.6139
 Frc consts  --      2.7269                 2.7327                 8.7168
 IR Inten    --      9.9457                10.1031                 1.5120

                     46                     47                     48
                      A                      A                      A
 Frequencies --   1626.3725              1702.0896              3043.6212
 Red. masses --      5.2686                 4.3501                 1.0569
 Frc consts  --      8.2107                 7.4253                 5.7686
 IR Inten    --      5.1595                 5.1388                10.8983

                     49                     50                     51
                      A                      A                      A
 Frequencies --   3107.5868              3140.8520              3147.2283
 Red. masses --      1.1061                 1.0724                 1.0781
 Frc consts  --      6.2934                 6.2332                 6.2914
 IR Inten    --      2.5962                11.1174                 3.4124

                     52                     53                     54
                      A                      A                      A
 Frequencies --   3157.9287              3168.1572              3178.2001
 Red. masses --      1.0859                 1.0876                 1.0909
 Frc consts  --      6.3802                 6.4319                 6.4922
 IR Inten    --      1.1453                 2.1127                20.7918

                     55                     56                     57
                      A                      A                      A
 Frequencies --   3188.0001              3194.7920              3229.5340
 Red. masses --      1.0936                 1.0954                 1.1163
 Frc consts  --      6.5486                 6.5875                 6.8596
 IR Inten    --     10.4922                20.9326                 6.6914

 - Thermochemistry -
 -------------------
 Temperature   298.150 Kelvin.  Pressure   1.00000 Atm.
 Atom     1 has atomic number  6 and mass  12.00000

 Molecular mass:   166.04524 amu.
 Principal axes and moments of inertia in atomic units:
                           1         2         3
     Eigenvalues --   767.869343447.249833701.82246
           X            0.83694   0.54042  -0.08651
           Y            0.33506  -0.38096   0.86175
           Z           -0.43275   0.75021   0.49991
 This molecule is an asymmetric top.
 Rotational symmetry number  1.
 Warning -- assumption of classical behavior for rotation
           may cause significant error
 Rotational temperatures (Kelvin)      0.11280     0.02513     0.02340
 Rotational constants (GHZ):           2.35032     0.52353     0.48753
 Zero-point vibrational energy     435131.5 (Joules/Mol)
                                  103.99892 (Kcal/Mol)
 Warning -- explicit consideration of  14 degrees of freedom as
           vibrations may cause significant error
 Vibrational temperatures:     59.90    76.37   103.44   135.49   273.46
          (Kelvin)            308.55   370.94   447.37   527.81   592.31
                              599.20   678.26   735.70   780.55   906.08
                             1003.35  1017.62  1049.98  1103.14  1242.87
                             1260.17  1343.74  1370.04  1388.76  1402.38
                             1434.92  1464.58  1468.96  1503.30  1549.73
                             1555.99  1579.75  1621.57  1700.86  1722.04
                             1744.20  1764.39  1908.91  1920.61  1941.06
                             2068.34  2111.62  2126.18  2177.62  2335.70
                             2339.99  2448.93  4379.09  4471.12  4518.99
                             4528.16  4543.55  4558.27  4572.72  4586.82
                             4596.59  4646.58

 Zero-point correction=                           0.165733 (Hartree/Particle)
 Thermal correction to Energy=                    0.176587
 Thermal correction to Enthalpy=                  0.177531
 Thermal correction to Gibbs Free Energy=         0.127769
 Sum of electronic and zero-point Energies=           -822.363865
 Sum of electronic and thermal Energies=              -822.353011
 Sum of electronic and thermal Enthalpies=            -822.352067
 Sum of electronic and thermal Free Energies=         -822.401829

                     E (Thermal)             CV                S
                      KCal/Mol        Cal/Mol-Kelvin    Cal/Mol-Kelvin
 Total                  110.810             40.148            104.733
 Electronic               0.000              0.000              0.000
 Translational            0.889              2.981             41.230
 Rotational               0.889              2.981             30.661
 Vibrational            109.032             34.186             32.842
 Vibration     1          0.594              1.981              5.180
 Vibration     2          0.596              1.976              4.699
 Vibration     3          0.598              1.967              4.101
 Vibration     4          0.603              1.953              3.571
 Vibration     5          0.633              1.854              2.227
 Vibration     6          0.644              1.819              2.005
 Vibration     7          0.667              1.750              1.676
 Vibration     8          0.700              1.653              1.357
 Vibration     9          0.740              1.540              1.093
 Vibration    10          0.776              1.445              0.921
 Vibration    11          0.780              1.434              0.904
 Vibration    12          0.828              1.313              0.734
 Vibration    13          0.866              1.225              0.630
 Vibration    14          0.898              1.156              0.560

                       ! Non-Optimized Parameters !
 Normal termination of Gaussian 16 at Fri Jun 10 11:56:05 2022.
