 Gaussian 16, Revision A.03,
 Gaussian 16:  ES64L-G16RevA.03 25-Dec-2016

 ----------------------------------------------------------------------
 # Opt=(TS, CalcFC, noeigentest, Z-matrix, MaxStep=10) Field=read NoSym
 m B3LYP/Def2TZVP freq=noraman pop=none
 ----------------------------------------------------------------------

 -----------------
 ts_zmat_initalOpt
 -----------------
 Symbolic Z-matrix:
 Charge =  0 Multiplicity = 1

 SCF Done:  E(RB3LYP) =  -269.392760389     A.U. after   14 cycles
 SCF Done:  E(RB3LYP) =  -269.392781301     A.U. after   10 cycles
 Optimization completed.
    -- Stationary point found.
 Normal termination of Gaussian 16 at Fri Jun 10 02:41:33 2022.

 --------------------------------------------------------------------
 #N Geom=AllCheck Guess=TCheck SCRF=Check GenChk RB3LYP/def2TZVP Freq
 --------------------------------------------------------------------

 Structure from the checkpoint file:  "checkpoint.chk"
 -----------------
 ts_zmat_initalOpt
 -----------------
 Charge =  0 Multiplicity = 1

                          Input orientation:
 ---------------------------------------------------------------------
 Center     Atomic      Atomic             Coordinates (Angstroms)
 Number     Number       Type             X           Y           Z
 ---------------------------------------------------------------------
      1          1           0        0.000000    0.000000    0.000000
      2          6           0        0.000000    0.000000    1.082774
      3          6           0        1.193767    0.000000    1.789063
      4          6           0       -1.172492    0.207896    1.804462
      5          1           0        2.112735   -0.308166    1.299976
      6          6           0        1.288114    0.617006    3.043399
      7          1           0       -2.088911    0.488625    1.300972
      8          1           0       -1.303925   -0.322965    2.737227
      9          1           0        2.245629    0.659233    3.544765
     10          6           0        0.357296    1.620564    3.383273
     11          1           0        0.755260    2.459216    3.967730
     12          8           0       -0.828426    1.749818    2.979684
 ---------------------------------------------------------------------

 SCF Done:  E(RB3LYP) =  -269.392781301     A.U. after    1 cycles

 Isotropic polarizability for W=    0.000000       65.32 Bohr**3.
 End of Minotr F.D. properties file   721 does not exist.

 ******    1 imaginary frequencies (negative Signs) ******

                      1                      2                      3
                      A                      A                      A
 Frequencies --   -510.0769               236.7339               376.6355
 Red. masses --      5.6507                 2.8885                 2.5545
 Frc consts  --      0.8662                 0.0954                 0.2135
 IR Inten    --     45.4308                 4.4436                 9.5606

                      4                      5                      6
                      A                      A                      A
 Frequencies --    419.4479               571.9840               589.4953
 Red. masses --      4.4112                 2.6487                 3.8637
 Frc consts  --      0.4573                 0.5106                 0.7911
 IR Inten    --      4.4979                24.1780                 2.3685

                      7                      8                      9
                      A                      A                      A
 Frequencies --    725.0838               787.6576               886.1656
 Red. masses --      1.2402                 1.3809                 2.1193
 Frc consts  --      0.3842                 0.5048                 0.9805
 IR Inten    --     49.0534                28.0998                26.4411

                     10                     11                     12
                      A                      A                      A
 Frequencies --    956.2732               964.6054               978.6902
 Red. masses --      1.5551                 1.4396                 1.4528
 Frc consts  --      0.8379                 0.7892                 0.8199
 IR Inten    --     46.7618                 4.2983                 3.6775

                     13                     14                     15
                      A                      A                      A
 Frequencies --   1015.7580              1042.8573              1097.9246
 Red. masses --      3.5805                 1.7592                 1.3288
 Frc consts  --      2.1766                 1.1272                 0.9438
 IR Inten    --     18.2954                 4.3990                17.0770

                     16                     17                     18
                      A                      A                      A
 Frequencies --   1114.4108              1182.7463              1248.8631
 Red. masses --      1.5527                 1.2227                 1.3620
 Frc consts  --      1.1361                 1.0078                 1.2516
 IR Inten    --      0.8635                13.2760                 2.8369

                     19                     20                     21
                      A                      A                      A
 Frequencies --   1349.9264              1403.5922              1441.6329
 Red. masses --      1.3576                 1.8862                 1.7950
 Frc consts  --      1.4576                 2.1894                 2.1979
 IR Inten    --     41.0240                59.5032                60.8387

                     22                     23                     24
                      A                      A                      A
 Frequencies --   1497.0952              1554.6454              1618.2851
 Red. masses --      1.7505                 2.2555                 5.6982
 Frc consts  --      2.3116                 3.2118                 8.7922
 IR Inten    --      4.3606                22.0095               121.0335

                     25                     26                     27
                      A                      A                      A
 Frequencies --   3025.8574              3139.2942              3146.8009
 Red. masses --      1.0852                 1.0575                 1.0874
 Frc consts  --      5.8541                 6.1406                 6.3440
 IR Inten    --     36.7605                18.3247                 7.9097

                     28                     29                     30
                      A                      A                      A
 Frequencies --   3178.8896              3190.8429              3224.4676
 Red. masses --      1.0918                 1.0915                 1.1174
 Frc consts  --      6.5003                 6.5474                 6.8449
 IR Inten    --      2.8924                 8.6412                 5.3394

 - Thermochemistry -
 -------------------
 Temperature   298.150 Kelvin.  Pressure   1.00000 Atm.
 Atom     1 has atomic number  1 and mass   1.00783

 Molecular mass:    82.04186 amu.
 Principal axes and moments of inertia in atomic units:
                           1         2         3
     Eigenvalues --   326.02135 385.98914 667.35069
           X           -0.08269   0.97240   0.21815
           Y            0.65446  -0.11210   0.74774
           Z            0.75156   0.20461  -0.62713
 This molecule is an asymmetric top.
 Rotational symmetry number  1.
 Rotational temperatures (Kelvin)      0.26567     0.22439     0.12979
 Rotational constants (GHZ):           5.53565     4.67563     2.70434
    1 imaginary frequencies ignored.
 Zero-point vibrational energy     251016.4 (Joules/Mol)
                                   59.99436 (Kcal/Mol)
 Warning -- explicit consideration of   5 degrees of freedom as
           vibrations may cause significant error
 Vibrational temperatures:    340.61   541.89   603.49   822.96   848.15
          (Kelvin)           1043.23  1133.26  1274.99  1375.86  1387.85
                             1408.12  1461.45  1500.44  1579.67  1603.39
                             1701.71  1796.84  1942.24  2019.46  2074.19
                             2153.99  2236.79  2328.35  4353.53  4516.74
                             4527.54  4573.71  4590.91  4639.29

 Zero-point correction=                           0.095607 (Hartree/Particle)
 Thermal correction to Energy=                    0.100459
 Thermal correction to Enthalpy=                  0.101403
 Thermal correction to Gibbs Free Energy=         0.067566
 Sum of electronic and zero-point Energies=           -269.297174
 Sum of electronic and thermal Energies=              -269.292322
 Sum of electronic and thermal Enthalpies=            -269.291378
 Sum of electronic and thermal Free Energies=         -269.325215

                     E (Thermal)             CV                S
                      KCal/Mol        Cal/Mol-Kelvin    Cal/Mol-Kelvin
 Total                   63.039             18.202             71.216
 Electronic               0.000              0.000              0.000
 Translational            0.889              2.981             39.128
 Rotational               0.889              2.981             25.932
 Vibrational             61.262             12.240              6.156
 Vibration     1          0.656              1.784              1.827
 Vibration     2          0.747              1.520              1.053
 Vibration     3          0.782              1.428              0.894
 Vibration     4          0.928              1.092              0.500
 Vibration     5          0.947              1.054              0.468

 Optimization completed.
    -- Stationary point found.
 Normal termination of Gaussian 16 at Fri Jun 10 02:44:07 2022.
