 Gaussian 16, Revision A.03,
 Gaussian 16:  ES64L-G16RevA.03 25-Dec-2016

 --------------------------
 # sp B3LYP/Def2TZVP NoSymm
 --------------------------

 ----------------------------
 int_initalOpt_zmat_AlignedSp
 ----------------------------
 Symbolic Z-matrix:
 Charge =  0 Multiplicity = 1

                          Input orientation:
 ---------------------------------------------------------------------
 Center     Atomic      Atomic             Coordinates (Angstroms)
 Number     Number       Type             X           Y           Z
 ---------------------------------------------------------------------
      1          6           0        0.000000    0.000000    0.000000
      2          6           0        0.000000    0.000000    1.420589
      3          6           0        1.311045    0.000000   -0.411211
      4          1           0       -0.861750    0.000000   -0.646335
      5          6           0        1.311045    0.000000    1.831801
      6          7           0        2.098746    0.000003    0.710296
      7          1           0        1.742600    0.000001   -1.397075
      8          1           0       -0.861751   -0.000003    2.066924
      9          1           0        1.742599   -0.000002    2.817666
     10          1           0        3.102389    0.000013    0.710296
 ---------------------------------------------------------------------

 SCF Done:  E(RB3LYP) =  -210.253440123     A.U. after   12 cycles

 Alpha  occ. eigenvalues --  -14.35971 -10.18827 -10.18824 -10.15227 -10.15181
 Alpha  occ. eigenvalues --   -0.97700  -0.77291  -0.72071  -0.59105  -0.56575
 Alpha  occ. eigenvalues --   -0.54566  -0.43157  -0.42480  -0.40951  -0.39027
 Alpha  occ. eigenvalues --   -0.37654  -0.24775  -0.21672
 Alpha virt. eigenvalues --    0.02870   0.02882   0.06955   0.08053   0.08873
 Alpha virt. eigenvalues --    0.10058   0.10708   0.14188   0.17867   0.19525
 Alpha virt. eigenvalues --    0.20843   0.20869   0.21185   0.25813   0.26324

 Mulliken charges:
               1
     1  C   -0.169778
     2  C   -0.169779
     3  C   -0.060163
     4  H    0.104986
     5  C   -0.060163
     6  N   -0.220225
     7  H    0.128011
     8  H    0.104986
     9  H    0.128011
    10  H    0.214114
 Sum of Mulliken charges =  -0.00000

 Dipole moment (field-independent basis, Debye):
    X=              1.9083    Y=              0.0000    Z=              0.0000  Tot=              1.9083
 Quadrupole moment (field-independent basis, Debye-Ang):
   XX=            -20.1263   YY=            -34.0566   ZZ=            -27.1687
   XY=              0.0001   XZ=              1.3555   YZ=             -0.0000

 Normal termination of Gaussian 16 at Fri Jun 10 11:00:16 2022.
