 Gaussian 16, Revision A.03,
 Gaussian 16:  ES64L-G16RevA.03 25-Dec-2016

 ----------------------------------------------------------------------
 # Opt=(TS, CalcFC, noeigentest, Z-matrix, MaxStep=10) Field=read NoSym
 m B3LYP/Def2TZVP freq=noraman pop=none
 ----------------------------------------------------------------------

 -----------------
 ts_zmat_initalOpt
 -----------------
 Symbolic Z-matrix:
 Charge =  0 Multiplicity = 1

 SCF Done:  E(RB3LYP) =  -210.177251655     A.U. after   14 cycles
 SCF Done:  E(RB3LYP) =  -210.177256135     A.U. after    9 cycles
 Optimization completed.
    -- Stationary point found.
 Normal termination of Gaussian 16 at Fri Jun 10 11:08:52 2022.

 --------------------------------------------------------------------
 #N Geom=AllCheck Guess=TCheck SCRF=Check GenChk RB3LYP/def2TZVP Freq
 --------------------------------------------------------------------

 Structure from the checkpoint file:  "checkpoint.chk"
 -----------------
 ts_zmat_initalOpt
 -----------------
 Charge =  0 Multiplicity = 1

                          Input orientation:
 ---------------------------------------------------------------------
 Center     Atomic      Atomic             Coordinates (Angstroms)
 Number     Number       Type             X           Y           Z
 ---------------------------------------------------------------------
      1          6           0        0.000000    0.000000    0.000000
      2          6           0        0.000000    0.000000    1.391835
      3          6           0        1.340799    0.000000   -0.400937
      4          1           0       -0.857601   -0.003148   -0.653766
      5          6           0        1.329581    0.021717    1.812702
      6          7           0        2.195600   -0.029381    0.777111
      7          1           0        1.772977   -0.243985   -1.359249
      8          1           0       -0.869898    0.015476    2.030951
      9          1           0        2.040651    0.993779    0.035591
     10          1           0        1.704737    0.109550    2.821567
 ---------------------------------------------------------------------

 SCF Done:  E(RB3LYP) =  -210.177256135     A.U. after    1 cycles

 Isotropic polarizability for W=    0.000000       50.51 Bohr**3.
 End of Minotr F.D. properties file   721 does not exist.

 ******    1 imaginary frequencies (negative Signs) ******

                      1                      2                      3
                      A                      A                      A
 Frequencies --  -1493.3511               588.5657               639.8040
 Red. masses --      1.2124                 2.2284                 3.8487
 Frc consts  --      1.5930                 0.4548                 0.9282
 IR Inten    --    106.6462                 2.6173                 3.4939

                      4                      5                      6
                      A                      A                      A
 Frequencies --    750.6813               844.5679               868.5836
 Red. masses --      1.1352                 1.4316                 1.7535
 Frc consts  --      0.3769                 0.6016                 0.7795
 IR Inten    --     91.0286                 6.6194                17.2185

                      7                      8                      9
                      A                      A                      A
 Frequencies --    881.4225               890.3071               939.5304
 Red. masses --      2.7075                 3.8363                 1.5513
 Frc consts  --      1.2393                 1.7916                 0.8068
 IR Inten    --      6.2726                 4.2021                 3.5179

                     10                     11                     12
                      A                      A                      A
 Frequencies --    954.7373              1065.8935              1090.5644
 Red. masses --      2.6521                 1.3735                 1.2485
 Frc consts  --      1.4243                 0.9194                 0.8749
 IR Inten    --     36.1368                10.2664                 1.3861

                     13                     14                     15
                      A                      A                      A
 Frequencies --   1135.7113              1174.3475              1252.6021
 Red. masses --      2.2284                 1.1411                 1.7411
 Frc consts  --      1.6935                 0.9272                 1.6095
 IR Inten    --      2.7104                24.6010                 1.5422

                     16                     17                     18
                      A                      A                      A
 Frequencies --   1312.5895              1430.8336              1482.9109
 Red. masses --      1.8686                 2.8568                 3.1785
 Frc consts  --      1.8968                 3.4460                 4.1181
 IR Inten    --      2.5617                 7.1834                 3.3536

                     19                     20                     21
                      A                      A                      A
 Frequencies --   1510.2695              2182.4575              3211.8486
 Red. masses --      3.5321                 1.0725                 1.0888
 Frc consts  --      4.7467                 3.0097                 6.6176
 IR Inten    --      1.4728                14.0846                 4.4033

                     22                     23                     24
                      A                      A                      A
 Frequencies --   3226.7798              3230.6533              3247.9470
 Red. masses --      1.0926                 1.0955                 1.1043
 Frc consts  --      6.7025                 6.7368                 6.8634
 IR Inten    --      4.3567                 4.2322                 0.7196

 - Thermochemistry -
 -------------------
 Temperature   298.150 Kelvin.  Pressure   1.00000 Atm.
 Atom     1 has atomic number  6 and mass  12.00000

 Molecular mass:    67.04220 amu.
 Principal axes and moments of inertia in atomic units:
                           1         2         3
     Eigenvalues --   196.16071 203.96810 392.48270
           X            0.96864  -0.24828  -0.00915
           Y            0.01050   0.00410   0.99994
           Z            0.24823   0.96868  -0.00658
 This molecule is an asymmetric top.
 Rotational symmetry number  1.
 Rotational temperatures (Kelvin)      0.44155     0.42464     0.22068
 Rotational constants (GHZ):           9.20032     8.84815     4.59827
    1 imaginary frequencies ignored.
 Zero-point vibrational energy     202848.4 (Joules/Mol)
                                   48.48194 (Kcal/Mol)
 Warning -- explicit consideration of   1 degrees of freedom as
           vibrations may cause significant error
 Vibrational temperatures:    846.81   920.54  1080.06  1215.14  1249.70
          (Kelvin)           1268.17  1280.95  1351.77  1373.65  1533.58
                             1569.08  1634.04  1689.62  1802.22  1888.52
                             2058.65  2133.58  2172.94  3140.07  4621.13
                             4642.62  4648.19  4673.07

 Zero-point correction=                           0.077261 (Hartree/Particle)
 Thermal correction to Energy=                    0.080960
 Thermal correction to Enthalpy=                  0.081904
 Thermal correction to Gibbs Free Energy=         0.050976
 Sum of electronic and zero-point Energies=           -210.099995
 Sum of electronic and thermal Energies=              -210.096296
 Sum of electronic and thermal Enthalpies=            -210.095352
 Sum of electronic and thermal Free Energies=         -210.126280

                     E (Thermal)             CV                S
                      KCal/Mol        Cal/Mol-Kelvin    Cal/Mol-Kelvin
 Total                   50.803             13.383             65.094
 Electronic               0.000              0.000              0.000
 Translational            0.889              2.981             38.526
 Rotational               0.889              2.981             24.266
 Vibrational             49.026              7.422              2.302
 Vibration     1          0.946              1.056              0.470

 Optimization completed.
    -- Stationary point found.
 Normal termination of Gaussian 16 at Fri Jun 10 11:10:19 2022.
