 Gaussian 16, Revision A.03,
 Gaussian 16:  ES64L-G16RevA.03 25-Dec-2016

 --------------------------------------------------------------------
 # Opt=(TS, CalcFC, noeigentest) B3LYP/Def2TZVP freq=noraman pop=none
 --------------------------------------------------------------------

 ------------
 ts_initalOpt
 ------------
 Symbolic Z-matrix:
 Charge =  0 Multiplicity = 1

 SCF Done:  E(RB3LYP) =  -309.678350209     A.U. after   14 cycles
 Optimization completed.
    -- Stationary point found.
 Normal termination of Gaussian 16 at Fri Jun 10 02:05:04 2022.

 --------------------------------------------------------------------
 #N Geom=AllCheck Guess=TCheck SCRF=Check GenChk RB3LYP/def2TZVP Freq
 --------------------------------------------------------------------

 Structure from the checkpoint file:  "checkpoint.chk"
 ------------
 ts_initalOpt
 ------------
 Charge =  0 Multiplicity = 1

                         Standard orientation:
 ---------------------------------------------------------------------
 Center     Atomic      Atomic             Coordinates (Angstroms)
 Number     Number       Type             X           Y           Z
 ---------------------------------------------------------------------
      1          6           0       -0.023803    0.705656    0.512291
      2          6           0       -0.241361    1.408433   -0.685236
      3          1           0       -0.393218    2.481227   -0.694843
      4          6           0       -0.142394    0.692381   -1.861389
      5          6           0        0.142394   -0.692381   -1.861389
      6          1           0       -0.244858    1.204006   -2.810383
      7          1           0        0.244858   -1.204006   -2.810383
      8          6           0        0.241361   -1.408433   -0.685236
      9          1           0        0.393218   -2.481227   -0.694843
     10          6           0        0.023803   -0.705656    0.512291
     11          6           0       -0.241361   -1.113186    1.850531
     12          1           0       -1.155578   -0.773919    2.310410
     13          6           0        0.241361    1.113186    1.850531
     14          1           0        0.196862   -2.003269    2.297632
     15          1           0        1.155578    0.773919    2.310410
     16          1           0       -0.196862    2.003269    2.297632
 ---------------------------------------------------------------------

 SCF Done:  E(RB3LYP) =  -309.678350209     A.U. after    1 cycles

 Isotropic polarizability for W=    0.000000       98.20 Bohr**3.
 End of Minotr F.D. properties file   721 does not exist.

 ******    1 imaginary frequencies (negative Signs) ******

                      1                      2                      3
                      A                      A                      B
 Frequencies --   -625.7382               225.0125               226.9001
 Red. masses --      2.1704                 2.8870                 3.2488
 Frc consts  --      0.5007                 0.0861                 0.0985
 IR Inten    --      5.1096                 0.9089                 5.0363

                      4                      5                      6
                      B                      B                      A
 Frequencies --    396.8864               432.6701               527.6135
 Red. masses --      2.7175                 3.0082                 3.1544
 Frc consts  --      0.2522                 0.3318                 0.5174
 IR Inten    --      6.0266                 5.3867                 1.3764

                      7                      8                      9
                      A                      B                      A
 Frequencies --    577.4237               594.1440               654.7565
 Red. masses --      5.1591                 4.0650                 1.2883
 Frc consts  --      1.0135                 0.8455                 0.3254
 IR Inten    --      0.0009                 4.7862                21.3596

                     10                     11                     12
                      B                      A                      B
 Frequencies --    659.0905               744.3621               769.9855
 Red. masses --      1.0924                 3.2056                 1.2341
 Frc consts  --      0.2796                 1.0465                 0.4311
 IR Inten    --      3.6331                 4.9019                55.3598

                     13                     14                     15
                      A                      A                      B
 Frequencies --    815.9579               856.2737               882.7463
 Red. masses --      3.6338                 1.3131                 1.7925
 Frc consts  --      1.4254                 0.5672                 0.8230
 IR Inten    --      0.0138                 7.8797                11.2158

                     16                     17                     18
                      B                      A                      B
 Frequencies --    886.7013               891.4262               945.4781
 Red. masses --      2.4796                 1.5815                 1.3689
 Frc consts  --      1.1486                 0.7404                 0.7210
 IR Inten    --      4.4104                39.7738                 6.5412

                     19                     20                     21
                      A                      B                      A
 Frequencies --    975.0195              1008.2524              1014.9967
 Red. masses --      1.2747                 1.4738                 2.1594
 Frc consts  --      0.7140                 0.8828                 1.3107
 IR Inten    --      0.5922                 2.5531                 0.0493

                     22                     23                     24
                      A                      B                      A
 Frequencies --   1040.8886              1143.9008              1179.0418
 Red. masses --      1.5600                 1.4695                 1.1001
 Frc consts  --      0.9958                 1.1329                 0.9011
 IR Inten    --     14.2696                 0.4940                 0.0021

                     25                     26                     27
                      B                      B                      A
 Frequencies --   1239.0277              1324.5599              1335.1222
 Red. masses --      2.3323                 1.6673                 2.7592
 Frc consts  --      2.1096                 1.7234                 2.8978
 IR Inten    --      8.2924                 0.0009                 3.2668

                     28                     29                     30
                      A                      B                      A
 Frequencies --   1373.3367              1472.2711              1492.5511
 Red. masses --      4.1520                 1.4104                 1.5126
 Frc consts  --      4.6138                 1.8012                 1.9854
 IR Inten    --      0.0985                 5.7314                 1.8661

                     31                     32                     33
                      A                      B                      A
 Frequencies --   1508.6142              1526.2221              1584.7077
 Red. masses --      2.1307                 2.1096                 5.1615
 Frc consts  --      2.8571                 2.8952                 7.6370
 IR Inten    --      3.9417                 4.1697                 4.3171

                     34                     35                     36
                      B                      A                      B
 Frequencies --   1632.3837              3106.8519              3107.5347
 Red. masses --      5.6190                 1.0639                 1.0656
 Frc consts  --      8.8218                 6.0507                 6.0630
 IR Inten    --      1.4044                17.9416                22.6095

                     37                     38                     39
                      B                      A                      B
 Frequencies --   3161.7994              3168.3163              3178.7689
 Red. masses --      1.0851                 1.0878                 1.0935
 Frc consts  --      6.3915                 6.4338                 6.5103
 IR Inten    --      1.0228                 1.5186                28.8125

                     40                     41                     42
                      A                      B                      A
 Frequencies --   3189.6410              3235.9078              3237.0424
 Red. masses --      1.0963                 1.1028                 1.1033
 Frc consts  --      6.5714                 6.8034                 6.8115
 IR Inten    --     16.9731                 2.4419                 5.1287

 - Thermochemistry -
 -------------------
 Temperature   298.150 Kelvin.  Pressure   1.00000 Atm.
 Atom     1 has atomic number  6 and mass  12.00000

 Molecular mass:   104.06260 amu.
 Principal axes and moments of inertia in atomic units:
                           1         2         3
     Eigenvalues --   471.13502 811.883471238.78368
           X            0.00000  -0.05053   0.99872
           Y            0.00000   0.99872   0.05053
           Z            1.00000  -0.00000   0.00000
 This molecule is an asymmetric top.
 Rotational symmetry number  2.
 Warning -- assumption of classical behavior for rotation
           may cause significant error
 Rotational temperatures (Kelvin)      0.18384     0.10668     0.06992
 Rotational constants (GHZ):           3.83062     2.22291     1.45687
    1 imaginary frequencies ignored.
 Zero-point vibrational energy     342874.8 (Joules/Mol)
                                   81.94904 (Kcal/Mol)
 Warning -- explicit consideration of   7 degrees of freedom as
           vibrations may cause significant error
 Vibrational temperatures:    323.74   326.46   571.03   622.52   759.12
          (Kelvin)            830.78   854.84   942.05   948.28  1070.97
                             1107.84  1173.98  1231.99  1270.08  1275.77
                             1282.56  1360.33  1402.84  1450.65  1460.35
                             1497.61  1645.82  1696.38  1782.68  1905.75
                             1920.94  1975.93  2118.27  2147.45  2170.56
                             2195.89  2280.04  2348.64  4470.07  4471.05
                             4549.12  4558.50  4573.54  4589.18  4655.75
                             4657.38

 Zero-point correction=                           0.130594 (Hartree/Particle)
 Thermal correction to Energy=                    0.136650
 Thermal correction to Enthalpy=                  0.137594
 Thermal correction to Gibbs Free Energy=         0.101458
 Sum of electronic and zero-point Energies=           -309.547756
 Sum of electronic and thermal Energies=              -309.541700
 Sum of electronic and thermal Enthalpies=            -309.540756
 Sum of electronic and thermal Free Energies=         -309.576892

                     E (Thermal)             CV                S
                      KCal/Mol        Cal/Mol-Kelvin    Cal/Mol-Kelvin
 Total                   85.749             25.113             76.056
 Electronic               0.000              0.000              0.000
 Translational            0.889              2.981             39.837
 Rotational               0.889              2.981             26.274
 Vibrational             83.972             19.152              9.945
 Vibration     1          0.650              1.803              1.918
 Vibration     2          0.651              1.800              1.903
 Vibration     3          0.763              1.477              0.974
 Vibration     4          0.794              1.399              0.850
 Vibration     5          0.883              1.189              0.593
 Vibration     6          0.934              1.080              0.490
 Vibration     7          0.952              1.044              0.460

 Optimization completed.
    -- Stationary point found.
 Normal termination of Gaussian 16 at Fri Jun 10 02:08:59 2022.
