 Gaussian 16, Revision A.03,
 Gaussian 16:  ES64L-G16RevA.03 25-Dec-2016

 ----------------------------------------------------------------------
 # Opt=(TS, CalcFC, noeigentest, Z-matrix, MaxStep=10) geom=allcheckpoi
 nt guess=read Field=read NoSymm B3LYP/Def2TZVP freq=noraman pop=none
 ----------------------------------------------------------------------

 Structure from the checkpoint file:  "checkpoint.chk"
 -----------------
 ts_zmat_initalOpt
 -----------------
 Charge =  0 Multiplicity = 1

 SCF Done:  E(RB3LYP) =  -439.143677573     A.U. after   11 cycles
 SCF Done:  E(RB3LYP) =  -439.143705412     A.U. after   13 cycles
 SCF Done:  E(RB3LYP) =  -439.143705638     A.U. after    8 cycles
 Optimization completed.
    -- Stationary point found.

 1\1\GINC-BHC0105\FTS\RB3LYP\def2TZVP\C8H7N1O1\DHANAWAY\10-Jun-2022\1\\
 # Opt=(TS, CalcFC, noeigentest, Z-matrix, MaxStep=10) geom=allcheckpoi
 nt guess=read Field=read NoSymm B3LYP/Def2TZVP freq=noraman pop=none\\
 ts_zmat_initalOpt\\0,1\C\C,1,R2\C,1,R3,2,A3\H,1,R4,2,A4,3,D4,0\O,3,R5,
 1,A5,2,D5,0\C,2,R6,1,A6,3,D6,0\H,2,R7,1,A7,6,D7,0\C,6,R8,2,A8,1,D8,0\H
 ,6,R9,2,A9,8,D9,0\C,8,R10,6,A10,2,D10,0\N,8,R11,6,A11,10,D11,0\H,10,R1
 2,8,A12,6,D12,0\C,10,R13,8,A13,12,D13,0\C,11,R14,8,A14,6,D14,0\H,11,R1
 5,8,A15,14,D15,0\H,13,R16,10,A16,8,D16,0\H,14,R17,11,A17,8,D17,0\\R2=1

 Normal termination of Gaussian 16 at Fri Jun 10 03:43:32 2022.

 --------------------------------------------------------------------
 #N Geom=AllCheck Guess=TCheck SCRF=Check GenChk RB3LYP/def2TZVP Freq
 --------------------------------------------------------------------

 Structure from the checkpoint file:  "checkpoint.chk"
 -----------------
 ts_zmat_initalOpt
 -----------------
 Charge =  0 Multiplicity = 1

                          Input orientation:
 ---------------------------------------------------------------------
 Center     Atomic      Atomic             Coordinates (Angstroms)
 Number     Number       Type             X           Y           Z
 ---------------------------------------------------------------------
      1          6           0        0.000000    0.000000    0.000000
      2          6           0        0.000000    0.000000    1.425388
      3          6           0        1.070604    0.000000   -0.851848
      4          1           0       -0.924656    0.270608   -0.503493
      5          8           0        1.422201    0.007595   -1.980112
      6          6           0        1.083606   -0.027202    2.249694
      7          1           0       -0.977063    0.092340    1.885692
      8          6           0        2.380250   -0.080209    1.668260
      9          1           0        0.963204    0.099127    3.317226
     10          6           0        2.700265   -0.613786    0.399353
     11          7           0        3.501916    0.522852    2.141902
     12          1           0        2.240126   -1.528203    0.048304
     13          6           0        4.081644   -0.293116    0.151026
     14          6           0        4.536590    0.402160    1.226758
     15          1           0        3.548002    1.060733    2.991741
     16          1           0        4.664954   -0.581661   -0.706752
     17          1           0        5.507510    0.816322    1.439633
 ---------------------------------------------------------------------

 SCF Done:  E(RB3LYP) =  -439.143705638     A.U. after    1 cycles

 Isotropic polarizability for W=    0.000000      108.38 Bohr**3.
 End of Minotr F.D. properties file   721 does not exist.

 ******    1 imaginary frequencies (negative Signs) ******

                      1                      2                      3
                      A                      A                      A
 Frequencies --   -382.5977               108.2503               137.1942
 Red. masses --      6.9375                 5.9424                 4.6549
 Frc consts  --      0.5983                 0.0410                 0.0516
 IR Inten    --    175.9564                 1.6446                 1.9131

                      4                      5                      6
                      A                      A                      A
 Frequencies --    270.0251               284.8917               327.1993
 Red. masses --      4.7709                 3.3978                 7.4963
 Frc consts  --      0.2050                 0.1625                 0.4729
 IR Inten    --     22.0090                 3.6826                 4.8046

                      7                      8                      9
                      A                      A                      A
 Frequencies --    459.5695               510.1364               553.3218
 Red. masses --      4.6307                 4.0377                 2.8877
 Frc consts  --      0.5762                 0.6191                 0.5209
 IR Inten    --      9.2795                 3.3966                 0.8510

                     10                     11                     12
                      A                      A                      A
 Frequencies --    573.6982               611.3983               625.5594
 Red. masses --      1.3323                 3.2836                 3.0335
 Frc consts  --      0.2584                 0.7232                 0.6994
 IR Inten    --     47.9862                 8.5237                 6.1315

                     13                     14                     15
                      A                      A                      A
 Frequencies --    674.2274               707.7183               745.9774
 Red. masses --      1.6903                 2.2729                 1.3880
 Frc consts  --      0.4527                 0.6707                 0.4551
 IR Inten    --     51.5232                47.1084                53.8309

                     16                     17                     18
                      A                      A                      A
 Frequencies --    764.0422               803.6999               850.7619
 Red. masses --      1.8357                 2.1626                 4.3932
 Frc consts  --      0.6314                 0.8230                 1.8735
 IR Inten    --      3.5572                68.1135                38.3614

                     19                     20                     21
                      A                      A                      A
 Frequencies --    878.0384               895.6498               959.5511
 Red. masses --      1.3369                 5.1980                 1.3231
 Frc consts  --      0.6072                 2.4568                 0.7177
 IR Inten    --      0.9590                 9.8141                 2.3452

                     22                     23                     24
                      A                      A                      A
 Frequencies --    988.6794               989.8146              1046.5080
 Red. masses --      2.0160                 2.5695                 1.3552
 Frc consts  --      1.1611                 1.4832                 0.8744
 IR Inten    --      6.2588                 7.8231                 6.7367

                     25                     26                     27
                      A                      A                      A
 Frequencies --   1096.2790              1126.4544              1146.1369
 Red. masses --      2.0228                 1.6412                 1.4186
 Frc consts  --      1.4323                 1.2270                 1.0979
 IR Inten    --     14.0280                 6.3128                 6.5567

                     28                     29                     30
                      A                      A                      A
 Frequencies --   1203.3142              1248.7261              1283.7174
 Red. masses --      1.1239                 1.9626                 1.7227
 Frc consts  --      0.9588                 1.8031                 1.6726
 IR Inten    --     11.9814                 1.1036                 3.0441

                     31                     32                     33
                      A                      A                      A
 Frequencies --   1390.8963              1410.4158              1437.1354
 Red. masses --      1.8260                 2.7109                 3.1454
 Frc consts  --      2.0813                 3.1773                 3.8276
 IR Inten    --     12.4574                 8.4372                49.0559

                     34                     35                     36
                      A                      A                      A
 Frequencies --   1459.2982              1534.6851              1590.6105
 Red. masses --      2.2296                 4.7510                 4.9801
 Frc consts  --      2.7975                 6.5928                 7.4236
 IR Inten    --     10.3416                 2.7656               122.5862

                     37                     38                     39
                      A                      A                      A
 Frequencies --   1602.2785              1943.9768              3122.3275
 Red. masses --      3.6763                12.6713                 1.0837
 Frc consts  --      5.5608                28.2133                 6.2245
 IR Inten    --     18.9716               791.4998                19.8241

                     40                     41                     42
                      A                      A                      A
 Frequencies --   3165.0017              3178.4188              3193.3843
 Red. masses --      1.0870                 1.0901                 1.0928
 Frc consts  --      6.4154                 6.4883                 6.5659
 IR Inten    --     10.0443                 3.2904                 4.8562

                     43                     44                     45
                      A                      A                      A
 Frequencies --   3251.0182              3269.6606              3630.2540
 Red. masses --      1.0902                 1.1047                 1.0803
 Frc consts  --      6.7886                 6.9580                 8.3881
 IR Inten    --      1.9939                 0.1609                93.2629

 - Thermochemistry -
 -------------------
 Temperature   298.150 Kelvin.  Pressure   1.00000 Atm.
 Atom     1 has atomic number  6 and mass  12.00000

 Molecular mass:   133.05276 amu.
 Principal axes and moments of inertia in atomic units:
                           1         2         3
     Eigenvalues --   833.677261345.910692079.07224
           X            0.87839  -0.47740  -0.02280
           Y            0.05841   0.05987   0.99650
           Z            0.47436   0.87664  -0.08048
 This molecule is an asymmetric top.
 Rotational symmetry number  1.
 Warning -- assumption of classical behavior for rotation
           may cause significant error
 Rotational temperatures (Kelvin)      0.10389     0.06435     0.04166
 Rotational constants (GHZ):           2.16480     1.34091     0.86805
    1 imaginary frequencies ignored.
 Zero-point vibrational energy     341234.2 (Joules/Mol)
                                   81.55693 (Kcal/Mol)
 Warning -- explicit consideration of  10 degrees of freedom as
           vibrations may cause significant error
 Vibrational temperatures:    155.75   197.39   388.51   409.90   470.77
          (Kelvin)            661.22   733.97   796.11   825.42   879.67
                              900.04   970.06  1018.25  1073.30  1099.29
                             1156.34  1224.06  1263.30  1288.64  1380.58
                             1422.49  1424.12  1505.69  1577.30  1620.72
                             1649.04  1731.30  1796.64  1846.98  2001.19
                             2029.27  2067.72  2099.60  2208.07  2288.53
                             2305.32  2796.95  4492.33  4553.73  4573.04
                             4594.57  4677.49  4704.31  5223.13

 Zero-point correction=                           0.129969 (Hartree/Particle)
 Thermal correction to Energy=                    0.137581
 Thermal correction to Enthalpy=                  0.138526
 Thermal correction to Gibbs Free Energy=         0.097596
 Sum of electronic and zero-point Energies=           -439.013736
 Sum of electronic and thermal Energies=              -439.006124
 Sum of electronic and thermal Enthalpies=            -439.005180
 Sum of electronic and thermal Free Energies=         -439.046110

                     E (Thermal)             CV                S
                      KCal/Mol        Cal/Mol-Kelvin    Cal/Mol-Kelvin
 Total                   86.334             30.475             86.143
 Electronic               0.000              0.000              0.000
 Translational            0.889              2.981             40.569
 Rotational               0.889              2.981             29.235
 Vibrational             84.556             24.513             16.339
 Vibration     1          0.606              1.943              3.300
 Vibration     2          0.614              1.916              2.843
 Vibration     3          0.674              1.728              1.596
 Vibration     4          0.683              1.702              1.504
 Vibration     5          0.711              1.621              1.274
 Vibration     6          0.817              1.340              0.767
 Vibration     7          0.865              1.228              0.633
 Vibration     8          0.909              1.132              0.537
 Vibration     9          0.930              1.088              0.497
 Vibration    10          0.971              1.008              0.430

 Optimization completed.
    -- Stationary point found.
 Normal termination of Gaussian 16 at Fri Jun 10 03:54:52 2022.
