 Gaussian 16, Revision A.03,
 Gaussian 16:  ES64L-G16RevA.03 25-Dec-2016

 ----------------------------------------------------------------------
 # Opt=(Z-matrix, MaxStep=10) B3LYP/Def2TZVP geom=allcheckpoint guess=r
 ead Field=read NoSymm freq=noraman pop=none
 ----------------------------------------------------------------------

 Structure from the checkpoint file:  "checkpoint.chk"
 ------------------
 int_zmat_initalOpt
 ------------------
 Charge =  0 Multiplicity = 1

 SCF Done:  E(RB3LYP) =  -210.249126814     A.U. after   10 cycles
 SCF Done:  E(RB3LYP) =  -210.249131753     A.U. after    8 cycles
 SCF Done:  E(RB3LYP) =  -210.249133024     A.U. after    7 cycles
 SCF Done:  E(RB3LYP) =  -210.249132811     A.U. after    8 cycles
 SCF Done:  E(RB3LYP) =  -210.249134816     A.U. after    7 cycles
 SCF Done:  E(RB3LYP) =  -210.249135691     A.U. after    7 cycles
 SCF Done:  E(RB3LYP) =  -210.249133081     A.U. after    9 cycles
 SCF Done:  E(RB3LYP) =  -210.249136400     A.U. after    7 cycles
 Optimization completed.
    -- Stationary point found.
 Normal termination of Gaussian 16 at Fri Jun 10 12:01:52 2022.

 --------------------------------------------------------------------
 #N Geom=AllCheck Guess=TCheck SCRF=Check GenChk RB3LYP/def2TZVP Freq
 --------------------------------------------------------------------

 Structure from the checkpoint file:  "checkpoint.chk"
 ------------------
 int_zmat_initalOpt
 ------------------
 Charge =  0 Multiplicity = 1

                          Input orientation:
 ---------------------------------------------------------------------
 Center     Atomic      Atomic             Coordinates (Angstroms)
 Number     Number       Type             X           Y           Z
 ---------------------------------------------------------------------
      1          6           0        0.000000    0.000000    0.000000
      2          6           0        0.000000    0.000000    1.420729
      3          6           0        1.309077    0.000000   -0.412634
      4          1           0       -0.867636    0.000469   -0.638507
      5          6           0        1.307241    0.004000    1.834406
      6          7           0        2.102271   -0.003816    0.711999
      7          1           0        1.736718    0.011621   -1.401209
      8          1           0       -0.866653    0.002507    2.060590
      9          1           0        1.731018    0.016664    2.824242
     10          1           0        3.102260    0.060192    0.715527
 ---------------------------------------------------------------------

 SCF Done:  E(RB3LYP) =  -210.249136400     A.U. after    1 cycles

 Isotropic polarizability for W=    0.000000       49.93 Bohr**3.
 End of Minotr F.D. properties file   721 does not exist.

                      1                      2                      3
                      A                      A                      A
 Frequencies --    312.9215               624.3002               634.3331
 Red. masses --      1.3588                 3.2618                 2.5529
 Frc consts  --      0.0784                 0.7490                 0.6052
 IR Inten    --     70.1351                 0.0509                 0.2335

                      4                      5                      6
                      A                      A                      A
 Frequencies --    655.0810               720.9590               834.0085
 Red. masses --      1.2757                 1.2102                 1.2128
 Frc consts  --      0.3225                 0.3706                 0.4970
 IR Inten    --      4.6222               143.1391                14.1342

                      7                      8                      9
                      A                      A                      A
 Frequencies --    874.2371               904.6095               905.2442
 Red. masses --      5.0042                 1.5885                 2.6381
 Frc consts  --      2.2534                 0.7659                 1.2737
 IR Inten    --      2.4339                 0.1972                 0.6597

                     10                     11                     12
                      A                      A                      A
 Frequencies --   1035.1448              1066.1261              1086.7760
 Red. masses --      1.5015                 1.4519                 1.5692
 Frc consts  --      0.9479                 0.9723                 1.0920
 IR Inten    --     36.9411                30.9886                 3.6675

                     13                     14                     15
                      A                      A                      A
 Frequencies --   1147.8978              1170.2891              1314.0437
 Red. masses --      1.2270                 3.2146                 1.3575
 Frc consts  --      0.9526                 2.5940                 1.3810
 IR Inten    --      0.1865                 8.6699                 0.5871

                     16                     17                     18
                      A                      A                      A
 Frequencies --   1416.9685              1442.6824              1492.7580
 Red. masses --      4.1814                 2.8703                 2.6202
 Frc consts  --      4.9464                 3.5199                 3.4400
 IR Inten    --      4.9880                 5.5906                 6.2338

                     19                     20                     21
                      A                      A                      A
 Frequencies --   1578.2009              3240.0270              3247.7158
 Red. masses --      3.2191                 1.0884                 1.0918
 Frc consts  --      4.7240                 6.7316                 6.7847
 IR Inten    --      1.8238                 3.4738                 0.3156

                     22                     23                     24
                      A                      A                      A
 Frequencies --   3257.9818              3267.0572              3678.3782
 Red. masses --      1.1001                 1.1068                 1.0796
 Frc consts  --      6.8801                 6.9607                 8.6062
 IR Inten    --      3.6167                 3.5808                25.2558

 - Thermochemistry -
 -------------------
 Temperature   298.150 Kelvin.  Pressure   1.00000 Atm.
 Atom     1 has atomic number  6 and mass  12.00000

 Molecular mass:    67.04220 amu.
 Principal axes and moments of inertia in atomic units:
                           1         2         3
     Eigenvalues --   196.68810 199.39854 396.05741
           X            0.99998  -0.00609  -0.00180
           Y            0.00181   0.00122   1.00000
           Z            0.00609   0.99998  -0.00123
 This molecule is an asymmetric top.
 Rotational symmetry number  1.
 Rotational temperatures (Kelvin)      0.44036     0.43438     0.21869
 Rotational constants (GHZ):           9.17565     9.05092     4.55677
 Zero-point vibrational energy     214776.0 (Joules/Mol)
                                   51.33269 (Kcal/Mol)
 Warning -- explicit consideration of   1 degrees of freedom as
           vibrations may cause significant error
 Vibrational temperatures:    450.22   898.23   912.66   942.52  1037.30
          (Kelvin)           1199.95  1257.83  1301.53  1302.44  1489.34
                             1533.92  1563.63  1651.57  1683.78  1890.62
                             2038.70  2075.70  2147.75  2270.68  4661.68
                             4672.74  4687.51  4700.57  5292.37

 Zero-point correction=                           0.081804 (Hartree/Particle)
 Thermal correction to Energy=                    0.085960
 Thermal correction to Enthalpy=                  0.086904
 Thermal correction to Gibbs Free Energy=         0.055268
 Sum of electronic and zero-point Energies=           -210.167333
 Sum of electronic and thermal Energies=              -210.163177
 Sum of electronic and thermal Enthalpies=            -210.162233
 Sum of electronic and thermal Free Energies=         -210.193868

                     E (Thermal)             CV                S
                      KCal/Mol        Cal/Mol-Kelvin    Cal/Mol-Kelvin
 Total                   53.941             15.253             66.583
 Electronic               0.000              0.000              0.000
 Translational            0.889              2.981             38.526
 Rotational               0.889              2.981             24.255
 Vibrational             52.163              9.291              3.801
 Vibration     1          0.701              1.649              1.347

 Optimization completed.
    -- Stationary point found.
 Normal termination of Gaussian 16 at Fri Jun 10 12:03:26 2022.
