 Gaussian 16, Revision A.03,
 Gaussian 16:  ES64L-G16RevA.03 25-Dec-2016

 ----------------------------------------------------------------------
 # Opt=(Z-matrix, MaxStep=10) B3LYP/Def2TZVP Field=read NoSymm freq=nor
 aman pop=none
 ----------------------------------------------------------------------

 ------------------
 int_zmat_initalOpt
 ------------------
 Symbolic Z-matrix:
 Charge =  0 Multiplicity = 1

 SCF Done:  E(RB3LYP) =  -439.155266505     A.U. after   15 cycles
 SCF Done:  E(RB3LYP) =  -439.155280273     A.U. after    9 cycles
 SCF Done:  E(RB3LYP) =  -439.155282311     A.U. after   10 cycles
 SCF Done:  E(RB3LYP) =  -439.155285908     A.U. after    9 cycles
 SCF Done:  E(RB3LYP) =  -439.155173899     A.U. after   12 cycles
 SCF Done:  E(RB3LYP) =  -439.155289021     A.U. after    9 cycles
 SCF Done:  E(RB3LYP) =  -439.155289504     A.U. after    8 cycles
 Optimization completed.
    -- Stationary point found.
 Normal termination of Gaussian 16 at Fri Jun 10 11:33:17 2022.

 --------------------------------------------------------------------
 #N Geom=AllCheck Guess=TCheck SCRF=Check GenChk RB3LYP/def2TZVP Freq
 --------------------------------------------------------------------

 Structure from the checkpoint file:  "checkpoint.chk"
 ------------------
 int_zmat_initalOpt
 ------------------
 Charge =  0 Multiplicity = 1

                          Input orientation:
 ---------------------------------------------------------------------
 Center     Atomic      Atomic             Coordinates (Angstroms)
 Number     Number       Type             X           Y           Z
 ---------------------------------------------------------------------
      1          6           0        0.000000    0.000000    0.000000
      2          6           0        0.000000    0.000000    1.388050
      3          6           0        1.043178    0.000000   -1.002011
      4          7           0       -1.321002   -0.110040   -0.385348
      5          6           0        2.309140    0.454229   -0.933002
      6          1           0        0.870911    0.018879    2.019164
      7          1           0        0.760621   -0.449556   -1.949342
      8          6           0       -1.342325   -0.100236    1.826755
      9          6           0       -2.139887   -0.161777    0.707989
     10          1           0       -1.629052   -0.106200   -1.341821
     11          6           0        3.013695    1.173981    0.115087
     12          1           0        2.930963    0.272591   -1.800935
     13          1           0       -1.683562   -0.134073    2.848261
     14          1           0       -3.208717   -0.238531    0.604364
     15          6           0        2.524416    1.849849    1.136856
     16          1           0        4.091004    1.274655    0.030610
     17          8           0        2.156051    2.454312    2.054618
 ---------------------------------------------------------------------

 SCF Done:  E(RB3LYP) =  -439.155289504     A.U. after    1 cycles

 Isotropic polarizability for W=    0.000000      107.69 Bohr**3.
 End of Minotr F.D. properties file   721 does not exist.

                      1                      2                      3
                      A                      A                      A
 Frequencies --     40.5402                65.9779               119.8806
 Red. masses --      4.5372                 3.8489                 5.7931
 Frc consts  --      0.0044                 0.0099                 0.0491
 IR Inten    --      1.8180                 0.9596                 0.4877

                      4                      5                      6
                      A                      A                      A
 Frequencies --    163.0179               223.2938               315.5526
 Red. masses --      6.2159                 3.5490                 5.2491
 Frc consts  --      0.0973                 0.1043                 0.3079
 IR Inten    --      3.4105                 2.9768                 5.3120

                      7                      8                      9
                      A                      A                      A
 Frequencies --    468.7413               487.7636               506.2076
 Red. masses --      1.6962                 1.7152                 4.5591
 Frc consts  --      0.2196                 0.2404                 0.6883
 IR Inten    --     51.1346                 2.2256                 4.2997

                     10                     11                     12
                      A                      A                      A
 Frequencies --    542.4405               598.0672               626.5881
 Red. masses --      5.1078                 1.9979                 2.7931
 Frc consts  --      0.8855                 0.4210                 0.6461
 IR Inten    --      3.3595                61.0177                 0.8884

                     13                     14                     15
                      A                      A                      A
 Frequencies --    654.2313               683.3590               702.0361
 Red. masses --      5.1910                 2.1321                 1.4928
 Frc consts  --      1.3091                 0.5866                 0.4335
 IR Inten    --      2.7726                 8.4584                72.3309

                     16                     17                     18
                      A                      A                      A
 Frequencies --    755.9415               797.5232               842.3864
 Red. masses --      1.5509                 1.3857                 3.2369
 Frc consts  --      0.5222                 0.5193                 1.3533
 IR Inten    --     16.2239                31.1884                13.5092

                     19                     20                     21
                      A                      A                      A
 Frequencies --    864.4493               899.2961               927.4528
 Red. masses --      1.4488                 5.5287                 4.4919
 Frc consts  --      0.6379                 2.6344                 2.2765
 IR Inten    --      4.8913                 2.9035                16.2133

                     22                     23                     24
                      A                      A                      A
 Frequencies --    959.7096               982.2066              1061.9709
 Red. masses --      1.2617                 2.5030                 1.3534
 Frc consts  --      0.6847                 1.4227                 0.8993
 IR Inten    --      1.7857                 1.7677                16.2423

                     25                     26                     27
                      A                      A                      A
 Frequencies --   1119.6475              1133.3604              1155.1495
 Red. masses --      1.9095                 1.4153                 1.5671
 Frc consts  --      1.4104                 1.0711                 1.2320
 IR Inten    --     29.5975                31.9935                 2.9967

                     28                     29                     30
                      A                      A                      A
 Frequencies --   1232.7337              1256.5491              1309.8450
 Red. masses --      2.4717                 1.4042                 1.3629
 Frc consts  --      2.2130                 1.3063                 1.3777
 IR Inten    --      7.6121                 0.1191                 3.0351

                     31                     32                     33
                      A                      A                      A
 Frequencies --   1422.9952              1437.1390              1439.8775
 Red. masses --      2.2260                 2.9235                 2.7023
 Frc consts  --      2.6557                 3.5575                 3.3009
 IR Inten    --      0.5191                 8.2490                13.7976

                     34                     35                     36
                      A                      A                      A
 Frequencies --   1468.8299              1489.4335              1594.8591
 Red. masses --      2.1030                 3.7012                 3.4320
 Frc consts  --      2.6732                 4.8377                 5.1433
 IR Inten    --      7.3529                33.6174                 0.8542

                     37                     38                     39
                      A                      A                      A
 Frequencies --   1668.6420              2183.4519              3133.6411
 Red. masses --      6.6058                12.6650                 1.0852
 Frc consts  --     10.8369                35.5747                 6.2786
 IR Inten    --     27.4233               699.3871                 6.9890

                     40                     41                     42
                      A                      A                      A
 Frequencies --   3155.2810              3176.2393              3237.9244
 Red. masses --      1.0831                 1.0903                 1.0896
 Frc consts  --      6.3532                 6.4806                 6.7307
 IR Inten    --     15.9381                 4.3061                 6.2195

                     43                     44                     45
                      A                      A                      A
 Frequencies --   3260.4723              3268.7986              3651.6453
 Red. masses --      1.0977                 1.1003                 1.0801
 Frc consts  --      6.8755                 6.9269                 8.4860
 IR Inten    --      3.4632                 0.2798                60.4101

 - Thermochemistry -
 -------------------
 Temperature   298.150 Kelvin.  Pressure   1.00000 Atm.
 Atom     1 has atomic number  6 and mass  12.00000

 Molecular mass:   133.05276 amu.
 Principal axes and moments of inertia in atomic units:
                           1         2         3
     Eigenvalues --   752.175811840.866742466.22088
           X            0.91977  -0.16923  -0.35410
           Y            0.39217   0.36202   0.84566
           Z            0.01492   0.91668  -0.39934
 This molecule is an asymmetric top.
 Rotational symmetry number  1.
 Warning -- assumption of classical behavior for rotation
           may cause significant error
 Rotational temperatures (Kelvin)      0.11515     0.04705     0.03512
 Rotational constants (GHZ):           2.39936     0.98038     0.73178
 Zero-point vibrational energy     341445.0 (Joules/Mol)
                                   81.60732 (Kcal/Mol)
 Warning -- explicit consideration of  11 degrees of freedom as
           vibrations may cause significant error
 Vibrational temperatures:     58.33    94.93   172.48   234.55   321.27
          (Kelvin)            454.01   674.41   701.78   728.32   780.45
                              860.49   901.52   941.29   983.20  1010.07
                             1087.63  1147.46  1212.01  1243.75  1293.89
                             1334.40  1380.81  1413.18  1527.94  1610.92
                             1630.65  1662.00  1773.63  1807.89  1884.57
                             2047.37  2067.72  2071.66  2113.32  2142.96
                             2294.65  2400.80  3141.50  4508.61  4539.75
                             4569.90  4658.65  4691.09  4703.07  5253.90

 Zero-point correction=                           0.130050 (Hartree/Particle)
 Thermal correction to Energy=                    0.139004
 Thermal correction to Enthalpy=                  0.139948
 Thermal correction to Gibbs Free Energy=         0.094934
 Sum of electronic and zero-point Energies=           -439.025240
 Sum of electronic and thermal Energies=              -439.016286
 Sum of electronic and thermal Enthalpies=            -439.015341
 Sum of electronic and thermal Free Energies=         -439.060355

                     E (Thermal)             CV                S
                      KCal/Mol        Cal/Mol-Kelvin    Cal/Mol-Kelvin
 Total                   87.226             33.200             94.739
 Electronic               0.000              0.000              0.000
 Translational            0.889              2.981             40.569
 Rotational               0.889              2.981             29.614
 Vibrational             85.449             27.239             24.556
 Vibration     1          0.594              1.981              5.233
 Vibration     2          0.597              1.971              4.270
 Vibration     3          0.609              1.933              3.102
 Vibration     4          0.623              1.888              2.514
 Vibration     5          0.649              1.806              1.932
 Vibration     6          0.703              1.644              1.333
 Vibration     7          0.826              1.319              0.741
 Vibration     8          0.844              1.277              0.689
 Vibration     9          0.861              1.236              0.643
 Vibration    10          0.898              1.156              0.560
 Vibration    11          0.956              1.036              0.453

                       ! Non-Optimized Parameters !
 Normal termination of Gaussian 16 at Fri Jun 10 11:43:24 2022.
