 Gaussian 16, Revision A.03,
 Gaussian 16:  ES64L-G16RevA.03 25-Dec-2016

 ----------------------------------------------------------------------
 # Opt=(Z-matrix, MaxStep=10) B3LYP/Def2TZVP geom=allcheckpoint guess=r
 ead Field=read NoSymm freq=noraman pop=none
 ----------------------------------------------------------------------

 Structure from the checkpoint file:  "checkpoint.chk"
 ------------------
 int_zmat_initalOpt
 ------------------
 Charge =  0 Multiplicity = 1

 SCF Done:  E(RB3LYP) =  -439.157597834     A.U. after   11 cycles
 SCF Done:  E(RB3LYP) =  -439.157609301     A.U. after    9 cycles
 SCF Done:  E(RB3LYP) =  -439.157612192     A.U. after    9 cycles
 SCF Done:  E(RB3LYP) =  -439.157613536     A.U. after    8 cycles
 SCF Done:  E(RB3LYP) =  -439.157614173     A.U. after    9 cycles
 SCF Done:  E(RB3LYP) =  -439.157614909     A.U. after    7 cycles
 SCF Done:  E(RB3LYP) =  -439.157614810     A.U. after    8 cycles
 SCF Done:  E(RB3LYP) =  -439.157615295     A.U. after    7 cycles
 Optimization completed.
    -- Stationary point found.
 Normal termination of Gaussian 16 at Fri Jun 10 12:11:01 2022.

 --------------------------------------------------------------------
 #N Geom=AllCheck Guess=TCheck SCRF=Check GenChk RB3LYP/def2TZVP Freq
 --------------------------------------------------------------------

 Structure from the checkpoint file:  "checkpoint.chk"
 ------------------
 int_zmat_initalOpt
 ------------------
 Charge =  0 Multiplicity = 1

                          Input orientation:
 ---------------------------------------------------------------------
 Center     Atomic      Atomic             Coordinates (Angstroms)
 Number     Number       Type             X           Y           Z
 ---------------------------------------------------------------------
      1          6           0        0.000000    0.000000    0.000000
      2          6           0        0.000000    0.000000    1.387743
      3          6           0        1.046545    0.000000   -1.000330
      4          7           0       -1.319243   -0.114427   -0.386837
      5          6           0        2.308043    0.465468   -0.928647
      6          1           0        0.871551    0.022049    2.017751
      7          1           0        0.773658   -0.465515   -1.942534
      8          6           0       -1.343324   -0.106539    1.825030
      9          6           0       -2.140267   -0.172157    0.705710
     10          1           0       -1.621721   -0.124816   -1.345082
     11          6           0        2.999674    1.203642    0.114832
     12          1           0        2.937335    0.277987   -1.789819
     13          1           0       -1.684577   -0.143661    2.846784
     14          1           0       -3.208277   -0.258239    0.599564
     15          6           0        2.491906    1.889502    1.119675
     16          1           0        4.077173    1.310523    0.037816
     17          8           0        2.098876    2.503131    2.021888
 ---------------------------------------------------------------------

 SCF Done:  E(RB3LYP) =  -439.157615295     A.U. after    1 cycles

 Isotropic polarizability for W=    0.000000      107.30 Bohr**3.
 End of Minotr F.D. properties file   721 does not exist.

                      1                      2                      3
                      A                      A                      A
 Frequencies --     41.0782                68.4403               119.3259
 Red. masses --      4.5400                 3.9226                 5.7988
 Frc consts  --      0.0045                 0.0108                 0.0486
 IR Inten    --      1.6161                 1.0554                 0.4716

                      4                      5                      6
                      A                      A                      A
 Frequencies --    162.7211               225.0785               315.3684
 Red. masses --      6.2305                 3.5661                 5.2182
 Frc consts  --      0.0972                 0.1064                 0.3058
 IR Inten    --      3.7687                 3.0639                 5.6036

                      7                      8                      9
                      A                      A                      A
 Frequencies --    468.0167               491.4659               508.4131
 Red. masses --      1.7284                 1.7695                 4.4316
 Frc consts  --      0.2231                 0.2518                 0.6749
 IR Inten    --     47.8759                 1.9086                 4.0479

                     10                     11                     12
                      A                      A                      A
 Frequencies --    542.5209               603.8393               626.4036
 Red. masses --      5.0981                 1.8913                 2.9041
 Frc consts  --      0.8841                 0.4063                 0.6714
 IR Inten    --      2.9183                62.5441                 0.6641

                     13                     14                     15
                      A                      A                      A
 Frequencies --    654.2957               673.5887               697.0733
 Red. masses --      4.6749                 1.4592                 2.3272
 Frc consts  --      1.1792                 0.3901                 0.6663
 IR Inten    --      2.4841                45.9453                31.9899

                     16                     17                     18
                      A                      A                      A
 Frequencies --    758.6032               789.9881               839.8253
 Red. masses --      1.4966                 1.3824                 2.4514
 Frc consts  --      0.5074                 0.5083                 1.0187
 IR Inten    --     15.8121                37.3387                 7.0229

                     19                     20                     21
                      A                      A                      A
 Frequencies --    857.7400               899.9686               928.4327
 Red. masses --      1.7056                 5.5530                 4.4722
 Frc consts  --      0.7393                 2.6499                 2.2713
 IR Inten    --      9.9891                 3.1594                15.7772

                     22                     23                     24
                      A                      A                      A
 Frequencies --    968.2563               981.6538              1059.4470
 Red. masses --      1.2816                 2.4139                 1.3626
 Frc consts  --      0.7079                 1.3705                 0.9011
 IR Inten    --      1.9039                 1.4171                16.2480

                     25                     26                     27
                      A                      A                      A
 Frequencies --   1117.9148              1132.5904              1154.4725
 Red. masses --      1.9160                 1.4161                 1.5681
 Frc consts  --      1.4108                 1.0703                 1.2313
 IR Inten    --     27.9344                31.4900                 3.4799

                     28                     29                     30
                      A                      A                      A
 Frequencies --   1232.0676              1256.7748              1309.0064
 Red. masses --      2.5674                 1.3938                 1.3514
 Frc consts  --      2.2962                 1.2971                 1.3643
 IR Inten    --      7.8757                 0.0649                 3.8028

                     31                     32                     33
                      A                      A                      A
 Frequencies --   1421.9088              1435.4935              1439.4662
 Red. masses --      2.2925                 2.8003                 2.7003
 Frc consts  --      2.7309                 3.3999                 3.2966
 IR Inten    --      1.2925                 4.3572                20.9547

                     34                     35                     36
                      A                      A                      A
 Frequencies --   1468.1791              1490.5779              1594.5517
 Red. masses --      2.0713                 3.7999                 3.4301
 Frc consts  --      2.6306                 4.9743                 5.1385
 IR Inten    --      8.2925                22.3390                 1.7698

                     37                     38                     39
                      A                      A                      A
 Frequencies --   1668.1970              2181.1462              3136.9830
 Red. masses --      6.5577                12.6538                 1.0855
 Frc consts  --     10.7522                35.4684                 6.2934
 IR Inten    --     35.6994               704.2067                 6.1119

                     40                     41                     42
                      A                      A                      A
 Frequencies --   3154.7517              3179.4212              3232.2245
 Red. masses --      1.0833                 1.0905                 1.0895
 Frc consts  --      6.3524                 6.4946                 6.7061
 IR Inten    --     19.6308                 3.1559                 9.2493

                     43                     44                     45
                      A                      A                      A
 Frequencies --   3257.1640              3268.7356              3651.1375
 Red. masses --      1.0988                 1.0987                 1.0801
 Frc consts  --      6.8684                 6.9166                 8.4837
 IR Inten    --      6.8206                 0.2429                60.8811

 - Thermochemistry -
 -------------------
 Temperature   298.150 Kelvin.  Pressure   1.00000 Atm.
 Atom     1 has atomic number  6 and mass  12.00000

 Molecular mass:   133.05276 amu.
 Principal axes and moments of inertia in atomic units:
                           1         2         3
     Eigenvalues --   752.680551835.543132454.87018
           X            0.91582  -0.17316  -0.36234
           Y            0.40147   0.37305   0.83645
           Z            0.00967   0.91151  -0.41117
 This molecule is an asymmetric top.
 Rotational symmetry number  1.
 Warning -- assumption of classical behavior for rotation
           may cause significant error
 Rotational temperatures (Kelvin)      0.11507     0.04719     0.03528
 Rotational constants (GHZ):           2.39775     0.98322     0.73517
 Zero-point vibrational energy     341320.4 (Joules/Mol)
                                   81.57753 (Kcal/Mol)
 Warning -- explicit consideration of  11 degrees of freedom as
           vibrations may cause significant error
 Vibrational temperatures:     59.10    98.47   171.68   234.12   323.84
          (Kelvin)            453.74   673.37   707.11   731.49   780.57
                              868.79   901.26   941.39   969.14  1002.93
                             1091.46  1136.62  1208.32  1234.10  1294.85
                             1335.81  1393.10  1412.38  1524.31  1608.43
                             1629.54  1661.03  1772.67  1808.22  1883.37
                             2045.81  2065.35  2071.07  2112.38  2144.61
                             2294.20  2400.16  3138.18  4513.42  4538.98
                             4574.48  4650.45  4686.33  4702.98  5253.17

 Zero-point correction=                           0.130002 (Hartree/Particle)
 Thermal correction to Energy=                    0.138951
 Thermal correction to Enthalpy=                  0.139895
 Thermal correction to Gibbs Free Energy=         0.094931
 Sum of electronic and zero-point Energies=           -439.027613
 Sum of electronic and thermal Energies=              -439.018664
 Sum of electronic and thermal Enthalpies=            -439.017720
 Sum of electronic and thermal Free Energies=         -439.062685

                     E (Thermal)             CV                S
                      KCal/Mol        Cal/Mol-Kelvin    Cal/Mol-Kelvin
 Total                   87.193             33.219             94.636
 Electronic               0.000              0.000              0.000
 Translational            0.889              2.981             40.569
 Rotational               0.889              2.981             29.607
 Vibrational             85.416             27.257             24.460
 Vibration     1          0.594              1.981              5.206
 Vibration     2          0.598              1.969              4.198
 Vibration     3          0.609              1.933              3.111
 Vibration     4          0.623              1.888              2.518
 Vibration     5          0.650              1.803              1.918
 Vibration     6          0.703              1.644              1.334
 Vibration     7          0.825              1.321              0.743
 Vibration     8          0.847              1.269              0.680
 Vibration     9          0.864              1.231              0.637
 Vibration    10          0.898              1.156              0.560
 Vibration    11          0.962              1.024              0.443

                       ! Non-Optimized Parameters !
 Normal termination of Gaussian 16 at Fri Jun 10 12:21:07 2022.
