 Gaussian 16, Revision A.03,
 Gaussian 16:  ES64L-G16RevA.03 25-Dec-2016

 ----------------------------------------------------------------------
 # Opt=(Z-matrix, MaxStep=10) B3LYP/Def2TZVP geom=allcheckpoint guess=r
 ead Field=read NoSymm freq=noraman pop=none
 ----------------------------------------------------------------------

 Structure from the checkpoint file:  "checkpoint.chk"
 ------------------
 int_zmat_initalOpt
 ------------------
 Charge =  0 Multiplicity = 1

 SCF Done:  E(RB3LYP) =  -439.164876024     A.U. after   11 cycles
 SCF Done:  E(RB3LYP) =  -439.164886736     A.U. after    9 cycles
 SCF Done:  E(RB3LYP) =  -439.164888978     A.U. after    9 cycles
 SCF Done:  E(RB3LYP) =  -439.164890376     A.U. after    9 cycles
 SCF Done:  E(RB3LYP) =  -439.164891000     A.U. after    9 cycles
 SCF Done:  E(RB3LYP) =  -439.164891325     A.U. after    9 cycles
 SCF Done:  E(RB3LYP) =  -439.164891399     A.U. after    9 cycles
 SCF Done:  E(RB3LYP) =  -439.164890304     A.U. after   10 cycles
 SCF Done:  E(RB3LYP) =  -439.164891637     A.U. after    8 cycles
 SCF Done:  E(RB3LYP) =  -439.164891657     A.U. after    8 cycles
 Optimization completed.
    -- Stationary point found.
 Normal termination of Gaussian 16 at Fri Jun 10 13:10:28 2022.

 --------------------------------------------------------------------
 #N Geom=AllCheck Guess=TCheck SCRF=Check GenChk RB3LYP/def2TZVP Freq
 --------------------------------------------------------------------

 Structure from the checkpoint file:  "checkpoint.chk"
 ------------------
 int_zmat_initalOpt
 ------------------
 Charge =  0 Multiplicity = 1

                          Input orientation:
 ---------------------------------------------------------------------
 Center     Atomic      Atomic             Coordinates (Angstroms)
 Number     Number       Type             X           Y           Z
 ---------------------------------------------------------------------
      1          6           0        0.000000    0.000000    0.000000
      2          6           0        0.000000    0.000000    1.388137
      3          6           0        1.048256    0.000000   -1.000641
      4          7           0       -1.316928   -0.122159   -0.388290
      5          6           0        2.312811    0.457595   -0.926031
      6          1           0        0.872098    0.029681    2.016669
      7          1           0        0.777010   -0.468781   -1.941395
      8          6           0       -1.344610   -0.117253    1.823174
      9          6           0       -2.141466   -0.191247    0.702989
     10          1           0       -1.608516   -0.159877   -1.349398
     11          6           0        3.007041    1.192385    0.117310
     12          1           0        2.944090    0.261352   -1.783931
     13          1           0       -1.685281   -0.160936    2.845857
     14          1           0       -3.207723   -0.297563    0.592787
     15          6           0        2.486986    1.899553    1.098540
     16          1           0        4.087874    1.279017    0.052124
     17          8           0        2.063983    2.530173    1.977256
 ---------------------------------------------------------------------

 SCF Done:  E(RB3LYP) =  -439.164891657     A.U. after    1 cycles

 Isotropic polarizability for W=    0.000000      107.17 Bohr**3.
 End of Minotr F.D. properties file   721 does not exist.

                      1                      2                      3
                      A                      A                      A
 Frequencies --     42.0907                73.4099               119.1506
 Red. masses --      4.5159                 4.0531                 5.9084
 Frc consts  --      0.0047                 0.0129                 0.0494
 IR Inten    --      1.2845                 1.2976                 0.4536

                      4                      5                      6
                      A                      A                      A
 Frequencies --    162.0390               228.1055               315.7552
 Red. masses --      6.1688                 3.6112                 5.1653
 Frc consts  --      0.0954                 0.1107                 0.3034
 IR Inten    --      4.6240                 3.0496                 6.0999

                      7                      8                      9
                      A                      A                      A
 Frequencies --    466.6143               494.8866               513.7190
 Red. masses --      1.8461                 1.8353                 4.2509
 Frc consts  --      0.2368                 0.2648                 0.6610
 IR Inten    --     41.2456                 2.8857                 3.2134

                     10                     11                     12
                      A                      A                      A
 Frequencies --    543.0761               613.6180               622.4494
 Red. masses --      5.0674                 1.7182                 3.7332
 Frc consts  --      0.8805                 0.3812                 0.8522
 IR Inten    --      2.0714                36.2823                19.6057

                     13                     14                     15
                      A                      A                      A
 Frequencies --    630.3394               657.6376               700.5666
 Red. masses --      1.2293                 4.9098                 2.7690
 Frc consts  --      0.2878                 1.2511                 0.8007
 IR Inten    --     64.2787                10.6423                10.6104

                     16                     17                     18
                      A                      A                      A
 Frequencies --    757.8878               775.9795               828.7603
 Red. masses --      1.2529                 1.5589                 1.5861
 Frc consts  --      0.4240                 0.5531                 0.6419
 IR Inten    --     26.5598                34.8959                 2.8851

                     19                     20                     21
                      A                      A                      A
 Frequencies --    850.4072               900.7602               930.2974
 Red. masses --      2.8413                 5.5904                 4.3803
 Frc consts  --      1.2107                 2.6724                 2.2336
 IR Inten    --     15.0139                 3.9407                15.7286

                     22                     23                     24
                      A                      A                      A
 Frequencies --    977.1778               985.1573              1054.8948
 Red. masses --      2.0003                 1.4325                 1.3826
 Frc consts  --      1.1254                 0.8192                 0.9065
 IR Inten    --      3.3157                 0.3259                17.5241

                     25                     26                     27
                      A                      A                      A
 Frequencies --   1114.0359              1131.3013              1152.5915
 Red. masses --      1.9256                 1.4200                 1.5721
 Frc consts  --      1.4080                 1.0708                 1.2305
 IR Inten    --     23.9791                32.6580                 5.0918

                     28                     29                     30
                      A                      A                      A
 Frequencies --   1229.6372              1257.4744              1308.5926
 Red. masses --      2.7640                 1.3893                 1.3289
 Frc consts  --      2.4623                 1.2943                 1.3408
 IR Inten    --      7.9826                 0.0646                 6.3031

                     31                     32                     33
                      A                      A                      A
 Frequencies --   1417.1270              1432.5584              1438.5301
 Red. masses --      2.4807                 2.5256                 2.7060
 Frc consts  --      2.9353                 3.0538                 3.2993
 IR Inten    --      4.5025                 2.2964                29.7619

                     34                     35                     36
                      A                      A                      A
 Frequencies --   1467.3567              1491.6532              1592.4801
 Red. masses --      2.0151                 3.9261                 3.4054
 Frc consts  --      2.5563                 5.1469                 5.0882
 IR Inten    --      9.9214                12.2939                 6.9844

                     37                     38                     39
                      A                      A                      A
 Frequencies --   1664.7716              2175.6660              3141.7125
 Red. masses --      6.3979                12.6249                 1.0858
 Frc consts  --     10.4471                35.2098                 6.3144
 IR Inten    --     63.3266               713.5457                 4.2448

                     40                     41                     42
                      A                      A                      A
 Frequencies --   3149.9986              3182.5969              3217.8092
 Red. masses --      1.0838                 1.0907                 1.0892
 Frc consts  --      6.3363                 6.5094                 6.6445
 IR Inten    --     32.8045                 4.1964                18.4567

                     43                     44                     45
                      A                      A                      A
 Frequencies --   3247.3192              3270.9208              3648.9503
 Red. masses --      1.0993                 1.0972                 1.0801
 Frc consts  --      6.8299                 6.9163                 8.4735
 IR Inten    --     17.2748                 0.0994                62.1140

 - Thermochemistry -
 -------------------
 Temperature   298.150 Kelvin.  Pressure   1.00000 Atm.
 Atom     1 has atomic number  6 and mass  12.00000

 Molecular mass:   133.05276 amu.
 Principal axes and moments of inertia in atomic units:
                           1         2         3
     Eigenvalues --   749.386331837.460952447.97247
           X            0.91469  -0.17251  -0.36548
           Y            0.40413   0.38351   0.83042
           Z            0.00309   0.90728  -0.42051
 This molecule is an asymmetric top.
 Rotational symmetry number  1.
 Warning -- assumption of classical behavior for rotation
           may cause significant error
 Rotational temperatures (Kelvin)      0.11558     0.04714     0.03538
 Rotational constants (GHZ):           2.40829     0.98219     0.73724
 Zero-point vibrational energy     340803.3 (Joules/Mol)
                                   81.45395 (Kcal/Mol)
 Warning -- explicit consideration of  11 degrees of freedom as
           vibrations may cause significant error
 Vibrational temperatures:     60.56   105.62   171.43   233.14   328.19
          (Kelvin)            454.30   671.35   712.03   739.13   781.37
                              882.86   895.57   906.92   946.19  1007.96
                             1090.43  1116.46  1192.40  1223.55  1295.99
                             1338.49  1405.94  1417.42  1517.76  1602.85
                             1627.69  1658.32  1769.17  1809.23  1882.77
                             2038.93  2061.13  2069.72  2111.20  2146.16
                             2291.22  2395.24  3130.30  4520.22  4532.15
                             4579.05  4629.71  4672.17  4706.13  5250.03

 Zero-point correction=                           0.129805 (Hartree/Particle)
 Thermal correction to Energy=                    0.138755
 Thermal correction to Enthalpy=                  0.139699
 Thermal correction to Gibbs Free Energy=         0.094811
 Sum of electronic and zero-point Energies=           -439.035087
 Sum of electronic and thermal Energies=              -439.026136
 Sum of electronic and thermal Enthalpies=            -439.025192
 Sum of electronic and thermal Free Energies=         -439.070080

                     E (Thermal)             CV                S
                      KCal/Mol        Cal/Mol-Kelvin    Cal/Mol-Kelvin
 Total                   87.070             33.306             94.475
 Electronic               0.000              0.000              0.000
 Translational            0.889              2.981             40.569
 Rotational               0.889              2.981             29.601
 Vibrational             85.293             27.345             24.305
 Vibration     1          0.595              1.980              5.158
 Vibration     2          0.599              1.967              4.060
 Vibration     3          0.609              1.933              3.114
 Vibration     4          0.622              1.889              2.526
 Vibration     5          0.651              1.798              1.894
 Vibration     6          0.703              1.644              1.332
 Vibration     7          0.824              1.324              0.747
 Vibration     8          0.850              1.261              0.671
 Vibration     9          0.869              1.220              0.625
 Vibration    10          0.898              1.155              0.559
 Vibration    11          0.973              1.003              0.427

                       ! Non-Optimized Parameters !
 Normal termination of Gaussian 16 at Fri Jun 10 13:21:29 2022.
