 Gaussian 16, Revision A.03,
 Gaussian 16:  ES64L-G16RevA.03 25-Dec-2016

 --------------------------
 # sp B3LYP/Def2TZVP NoSymm
 --------------------------

 ----------------------------
 int_initalOpt_zmat_AlignedSp
 ----------------------------
 Symbolic Z-matrix:
 Charge =  0 Multiplicity = 1

                          Input orientation:
 ---------------------------------------------------------------------
 Center     Atomic      Atomic             Coordinates (Angstroms)
 Number     Number       Type             X           Y           Z
 ---------------------------------------------------------------------
      1          6           0        0.000000    0.000000    0.000000
      2          6           0        0.000000    0.000000    1.388644
      3          6           0        1.038119    0.000000   -1.004879
      4          7           0       -1.323901   -0.095856   -0.383333
      5          6           0        2.314106    0.427202   -0.937933
      6          1           0        0.870501    0.007602    2.020657
      7          1           0        0.740181   -0.422811   -1.960057
      8          6           0       -1.341502   -0.085477    1.829038
      9          6           0       -2.140559   -0.136278    0.710898
     10          1           0       -1.637792   -0.074535   -1.337652
     11          6           0        3.042961    1.111901    0.117571
     12          1           0        2.923634    0.252901   -1.816234
     13          1           0       -1.682786   -0.114410    2.850372
     14          1           0       -3.210732   -0.195125    0.610137
     15          6           0        2.583773    1.775044    1.162430
     16          1           0        4.120685    1.195199    0.022131
     17          8           0        2.250971    2.366964    2.100978
 ---------------------------------------------------------------------

 SCF Done:  E(RB3LYP) =  -439.153854493     A.U. after   15 cycles

 Alpha  occ. eigenvalues --  -19.19830 -14.36149 -10.29963 -10.20234 -10.19481
 Alpha  occ. eigenvalues --  -10.19328 -10.19086 -10.17933 -10.15786 -10.15722
 Alpha  occ. eigenvalues --   -1.12788  -0.98269  -0.82669  -0.77797  -0.76941
 Alpha  occ. eigenvalues --   -0.71156  -0.62152  -0.59481  -0.57514  -0.54441
 Alpha  occ. eigenvalues --   -0.51928  -0.50766  -0.46470  -0.45926  -0.45741
 Alpha  occ. eigenvalues --   -0.43171  -0.41975  -0.40733  -0.39720  -0.38854
 Alpha  occ. eigenvalues --   -0.36368  -0.32507  -0.25328  -0.25187  -0.19186
 Alpha virt. eigenvalues --   -0.04578  -0.03416   0.02747   0.03968   0.05137
 Alpha virt. eigenvalues --    0.06106   0.07072   0.08264   0.09145   0.09873
 Alpha virt. eigenvalues --    0.11641   0.12120   0.12408   0.15061   0.16411

 Mulliken charges:
               1
     1  C    0.243649
     2  C   -0.200116
     3  C   -0.248115
     4  N   -0.255103
     5  C   -0.072258
     6  H    0.127310
     7  H    0.094778
     8  C   -0.164177
     9  C   -0.063031
    10  H    0.211906
    11  C   -0.276397
    12  H    0.109386
    13  H    0.109307
    14  H    0.131358
    15  C    0.233607
    16  H    0.147940
    17  O   -0.130044
 Sum of Mulliken charges =  -0.00000

 Dipole moment (field-independent basis, Debye):
    X=             -0.3017    Y=             -0.5314    Z=             -2.3094  Tot=              2.3889
 Quadrupole moment (field-independent basis, Debye-Ang):
   XX=            -47.2753   YY=            -64.8647   ZZ=            -56.5945
   XY=              1.2005   XZ=              0.3404   YZ=             -1.5088

 Normal termination of Gaussian 16 at Fri Jun 10 11:14:25 2022.
