 Gaussian 16, Revision A.03,
 Gaussian 16:  ES64L-G16RevA.03 25-Dec-2016

 ----------------------------------------------------------------------
 # Opt=(TS, CalcFC, noeigentest, Z-matrix, MaxStep=10) geom=allcheckpoi
 nt guess=read Field=read NoSymm B3LYP/Def2TZVP freq=noraman pop=none
 ----------------------------------------------------------------------

 Structure from the checkpoint file:  "checkpoint.chk"
 -----------------
 ts_zmat_initalOpt
 -----------------
 Charge =  0 Multiplicity = 1

 SCF Done:  E(RB3LYP) =  -439.149002180     A.U. after   11 cycles
 SCF Done:  E(RB3LYP) =  -439.149022236     A.U. after   12 cycles
 Optimization completed.
    -- Stationary point found.

 1\1\GINC-BHC0195\FTS\RB3LYP\def2TZVP\C8H7N1O1\DHANAWAY\10-Jun-2022\1\\
 # Opt=(TS, CalcFC, noeigentest, Z-matrix, MaxStep=10) geom=allcheckpoi
 nt guess=read Field=read NoSymm B3LYP/Def2TZVP freq=noraman pop=none\\
 ts_zmat_initalOpt\\0,1\C\C,1,R2\C,1,R3,2,A3\N,1,R4,2,A4,3,D4,0\C,3,R5,
 1,A5,2,D5,0\H,2,R6,1,A6,3,D6,0\H,3,R7,1,A7,5,D7,0\C,2,R8,1,A8,6,D8,0\C
 ,4,R9,1,A9,2,D9,0\H,4,R10,1,A10,9,D10,0\C,5,R11,3,A11,1,D11,0\H,5,R12,
 3,A12,11,D12,0\H,8,R13,2,A13,1,D13,0\H,9,R14,4,A14,1,D14,0\C,11,R15,5,
 A15,3,D15,0\H,11,R16,5,A16,15,D16,0\O,15,R17,11,A17,5,D17,0\\R2=1.4129

 Normal termination of Gaussian 16 at Fri Jun 10 12:47:06 2022.

 --------------------------------------------------------------------
 #N Geom=AllCheck Guess=TCheck SCRF=Check GenChk RB3LYP/def2TZVP Freq
 --------------------------------------------------------------------

 Structure from the checkpoint file:  "checkpoint.chk"
 -----------------
 ts_zmat_initalOpt
 -----------------
 Charge =  0 Multiplicity = 1

                          Input orientation:
 ---------------------------------------------------------------------
 Center     Atomic      Atomic             Coordinates (Angstroms)
 Number     Number       Type             X           Y           Z
 ---------------------------------------------------------------------
      1          6           0        0.000000    0.000000    0.000000
      2          6           0        0.000000    0.000000    1.412952
      3          6           0        1.159505    0.000000   -0.820470
      4          7           0       -1.285661    0.158839   -0.406447
      5          6           0        2.293254    0.574085   -0.330869
      6          1           0        0.710616   -0.601343    1.964095
      7          1           0        1.114939   -0.331787   -1.848832
      8          6           0       -1.373092    0.166035    1.820782
      9          6           0       -2.124164    0.266917    0.691324
     10          1           0       -1.570827    0.273676   -1.365979
     11          6           0        2.462815    1.217156    0.932090
     12          1           0        3.150150    0.627116   -0.991870
     13          1           0       -1.747684    0.179684    2.830636
     14          1           0       -3.184278    0.399603    0.556627
     15          6           0        1.563964    1.352846    1.948946
     16          1           0        3.337978    1.848225    1.061970
     17          8           0        1.374299    1.746945    3.052272
 ---------------------------------------------------------------------

 SCF Done:  E(RB3LYP) =  -439.149022236     A.U. after    1 cycles

 Isotropic polarizability for W=    0.000000      107.70 Bohr**3.
 End of Minotr F.D. properties file   721 does not exist.

 ******    1 imaginary frequencies (negative Signs) ******

                      1                      2                      3
                      A                      A                      A
 Frequencies --   -391.4550               110.6558               137.5273
 Red. masses --      6.8987                 5.9672                 4.6254
 Frc consts  --      0.6228                 0.0430                 0.0515
 IR Inten    --    181.4649                 1.4229                 1.8588

                      4                      5                      6
                      A                      A                      A
 Frequencies --    270.3471               289.4448               329.1233
 Red. masses --      4.8009                 3.3743                 7.6048
 Frc consts  --      0.2067                 0.1666                 0.4854
 IR Inten    --     22.2084                 3.2393                 5.6822

                      7                      8                      9
                      A                      A                      A
 Frequencies --    461.0009               512.8261               553.3620
 Red. masses --      4.7107                 4.2168                 2.9491
 Frc consts  --      0.5898                 0.6534                 0.5321
 IR Inten    --      8.2595                 3.4017                 0.5133

                     10                     11                     12
                      A                      A                      A
 Frequencies --    585.6397               611.0976               626.2290
 Red. masses --      1.4099                 2.9929                 2.8418
 Frc consts  --      0.2849                 0.6585                 0.6566
 IR Inten    --     43.1240                 6.8183                 5.6219

                     13                     14                     15
                      A                      A                      A
 Frequencies --    675.7146               706.6160               740.0445
 Red. masses --      1.7157                 1.7356                 1.7978
 Frc consts  --      0.4616                 0.5106                 0.5801
 IR Inten    --     34.7020                88.7237                34.2600

                     16                     17                     18
                      A                      A                      A
 Frequencies --    774.5449               803.3597               849.8095
 Red. masses --      1.6968                 2.0839                 4.0215
 Frc consts  --      0.5997                 0.7924                 1.7111
 IR Inten    --      3.5867                74.3954                38.3799

                     19                     20                     21
                      A                      A                      A
 Frequencies --    857.3327               896.7602               974.2636
 Red. masses --      1.3692                 5.4021                 1.5005
 Frc consts  --      0.5929                 2.5596                 0.8391
 IR Inten    --      2.1042                 8.9458                 3.5259

                     22                     23                     24
                      A                      A                      A
 Frequencies --    989.9932               992.6938              1041.2127
 Red. masses --      2.3372                 1.8088                 1.3745
 Frc consts  --      1.3496                 1.0502                 0.8780
 IR Inten    --      4.6890                 7.9898                 6.4185

                     25                     26                     27
                      A                      A                      A
 Frequencies --   1099.9138              1127.0462              1143.0032
 Red. masses --      2.0396                 1.6450                 1.4266
 Frc consts  --      1.4538                 1.2311                 1.0981
 IR Inten    --     11.3249                 7.3177                 7.8441

                     28                     29                     30
                      A                      A                      A
 Frequencies --   1207.2744              1248.1191              1286.8150
 Red. masses --      1.1318                 1.9449                 1.7254
 Frc consts  --      0.9719                 1.7851                 1.6833
 IR Inten    --     12.8604                 1.7200                 3.3787

                     31                     32                     33
                      A                      A                      A
 Frequencies --   1389.9141              1409.0732              1437.0029
 Red. masses --      1.8806                 2.6388                 3.2357
 Frc consts  --      2.1405                 3.0869                 3.9367
 IR Inten    --     10.8250                 8.2658                48.9034

                     34                     35                     36
                      A                      A                      A
 Frequencies --   1460.2812              1537.1305              1587.1887
 Red. masses --      2.1559                 4.8347                 4.8940
 Frc consts  --      2.7087                 6.7304                 7.2640
 IR Inten    --      7.8604                10.6364               134.8313

                     37                     38                     39
                      A                      A                      A
 Frequencies --   1602.4880              1927.0219              3129.4778
 Red. masses --      3.6168                12.5942                 1.0840
 Frc consts  --      5.4723                27.5546                 6.2549
 IR Inten    --     15.3709               804.5541                12.4000

                     40                     41                     42
                      A                      A                      A
 Frequencies --   3175.5657              3181.2313              3199.7316
 Red. masses --      1.0875                 1.0900                 1.0935
 Frc consts  --      6.4612                 6.4993                 6.5959
 IR Inten    --      2.4632                 2.7741                 0.4605

                     43                     44                     45
                      A                      A                      A
 Frequencies --   3242.1821              3265.0651              3622.2675
 Red. masses --      1.0901                 1.1034                 1.0806
 Frc consts  --      6.7514                 6.9303                 8.3538
 IR Inten    --      5.0367                 2.6563               108.9630

 - Thermochemistry -
 -------------------
 Temperature   298.150 Kelvin.  Pressure   1.00000 Atm.
 Atom     1 has atomic number  6 and mass  12.00000

 Molecular mass:   133.05276 amu.
 Principal axes and moments of inertia in atomic units:
                           1         2         3
     Eigenvalues --   837.497251335.692112069.81246
           X            0.91878  -0.33389  -0.21063
           Y            0.29644   0.23115   0.92666
           Z            0.26071   0.91383  -0.31135
 This molecule is an asymmetric top.
 Rotational symmetry number  1.
 Warning -- assumption of classical behavior for rotation
           may cause significant error
 Rotational temperatures (Kelvin)      0.10342     0.06485     0.04185
 Rotational constants (GHZ):           2.15492     1.35117     0.87193
    1 imaginary frequencies ignored.
 Zero-point vibrational energy     341338.8 (Joules/Mol)
                                   81.58193 (Kcal/Mol)
 Warning -- explicit consideration of  10 degrees of freedom as
           vibrations may cause significant error
 Vibrational temperatures:    159.21   197.87   388.97   416.45   473.53
          (Kelvin)            663.28   737.84   796.16   842.60   879.23
                              901.00   972.20  1016.66  1064.76  1114.40
                             1155.86  1222.69  1233.51  1290.24  1401.75
                             1424.38  1428.26  1498.07  1582.53  1621.57
                             1644.53  1737.00  1795.76  1851.44  1999.78
                             2027.34  2067.53  2101.02  2211.59  2283.61
                             2305.62  2772.55  4502.62  4568.93  4577.08
                             4603.70  4664.78  4697.70  5211.64

 Zero-point correction=                           0.130009 (Hartree/Particle)
 Thermal correction to Energy=                    0.137598
 Thermal correction to Enthalpy=                  0.138542
 Thermal correction to Gibbs Free Energy=         0.097672
 Sum of electronic and zero-point Energies=           -439.019013
 Sum of electronic and thermal Energies=              -439.011424
 Sum of electronic and thermal Enthalpies=            -439.010480
 Sum of electronic and thermal Free Energies=         -439.051350

                     E (Thermal)             CV                S
                      KCal/Mol        Cal/Mol-Kelvin    Cal/Mol-Kelvin
 Total                   86.344             30.426             86.018
 Electronic               0.000              0.000              0.000
 Translational            0.889              2.981             40.569
 Rotational               0.889              2.981             29.228
 Vibrational             84.566             24.465             16.221
 Vibration     1          0.606              1.941              3.257
 Vibration     2          0.614              1.916              2.838
 Vibration     3          0.674              1.728              1.594
 Vibration     4          0.686              1.693              1.477
 Vibration     5          0.712              1.617              1.264
 Vibration     6          0.819              1.337              0.763
 Vibration     7          0.868              1.222              0.627
 Vibration     8          0.909              1.132              0.537
 Vibration     9          0.943              1.062              0.475
 Vibration    10          0.970              1.008              0.431

 Optimization completed.
    -- Stationary point found.
 Normal termination of Gaussian 16 at Fri Jun 10 12:56:53 2022.
