 Gaussian 16, Revision A.03,
 Gaussian 16:  ES64L-G16RevA.03 25-Dec-2016

 ------------------------------------------
 # Opt B3LYP/Def2TZVP freq=noraman pop=none
 ------------------------------------------

 -------------
 int_initalOpt
 -------------
 Symbolic Z-matrix:
 Charge =  0 Multiplicity = 1

 SCF Done:  E(RB3LYP) =  -195.367315594     A.U. after   13 cycles
 Optimization completed.
    -- Stationary point found.
 Normal termination of Gaussian 16 at Fri Jun 10 22:11:33 2022.

 --------------------------------------------------------------------
 #N Geom=AllCheck Guess=TCheck SCRF=Check GenChk RB3LYP/def2TZVP Freq
 --------------------------------------------------------------------

 Structure from the checkpoint file:  "checkpoint.chk"
 -------------
 int_initalOpt
 -------------
 Charge =  0 Multiplicity = 1

                         Standard orientation:
 ---------------------------------------------------------------------
 Center     Atomic      Atomic             Coordinates (Angstroms)
 Number     Number       Type             X           Y           Z
 ---------------------------------------------------------------------
      1          6           0       -1.422874   -0.397351    0.576714
      2          6           0       -0.357019   -0.393644   -0.500878
      3          6           0       -1.129724    0.857306   -0.198853
      4          1           0       -1.084741   -0.440530    1.603508
      5          1           0       -2.346251   -0.926178    0.380655
      6          1           0       -0.624338    1.659660    0.320686
      7          1           0       -1.855683    1.190903   -0.928217
      8          6           0        1.071846   -0.562879   -0.143556
      9          1           0       -0.642790   -0.914584   -1.409329
     10          6           0        1.926974    0.398090    0.188401
     11          1           0        1.426201   -1.591257   -0.157269
     12          1           0        1.641201    1.442895    0.204964
     13          1           0        2.951181    0.169955    0.454031
 ---------------------------------------------------------------------

 SCF Done:  E(RB3LYP) =  -195.367315594     A.U. after    1 cycles

 Isotropic polarizability for W=    0.000000       58.21 Bohr**3.
 End of Minotr F.D. properties file   721 does not exist.

                      1                      2                      3
                      A                      A                      A
 Frequencies --     93.6805               267.2326               308.1095
 Red. masses --      2.0476                 2.6146                 1.8158
 Frc consts  --      0.0106                 0.1100                 0.1016
 IR Inten    --      0.6009                 0.3333                 0.9266

                      4                      5                      6
                      A                      A                      A
 Frequencies --    535.0306               663.9414               757.5958
 Red. masses --      2.0776                 1.6350                 1.6802
 Frc consts  --      0.3504                 0.4247                 0.5682
 IR Inten    --      0.1995                14.2781                 1.6593

                      7                      8                      9
                      A                      A                      A
 Frequencies --    813.6508               836.5727               909.0550
 Red. masses --      1.2503                 1.4199                 2.6417
 Frc consts  --      0.4877                 0.5855                 1.2862
 IR Inten    --      0.5477                 8.8770                 6.2390

                     10                     11                     12
                      A                      A                      A
 Frequencies --    946.2666               948.5215              1026.1246
 Red. masses --      1.3495                 2.4974                 1.1107
 Frc consts  --      0.7119                 1.3238                 0.6890
 IR Inten    --     40.4814                14.5608                17.3113

                     13                     14                     15
                      A                      A                      A
 Frequencies --   1051.7845              1082.4973              1096.6451
 Red. masses --      1.2112                 1.3516                 1.5479
 Frc consts  --      0.7894                 0.9332                 1.0968
 IR Inten    --      6.3025                 2.9817                 9.0704

                     16                     17                     18
                      A                      A                      A
 Frequencies --   1122.1629              1133.7411              1200.7600
 Red. masses --      1.4735                 1.2112                 1.3896
 Frc consts  --      1.0932                 0.9173                 1.1804
 IR Inten    --      1.0722                 0.4249                 1.9879

                     19                     20                     21
                      A                      A                      A
 Frequencies --   1226.8961              1335.1519              1402.8183
 Red. masses --      1.8917                 1.2628                 1.5331
 Frc consts  --      1.6777                 1.3263                 1.7775
 IR Inten    --      2.0638                 0.1947                 0.3317

                     22                     23                     24
                      A                      A                      A
 Frequencies --   1459.0157              1473.0100              1508.8713
 Red. masses --      1.2713                 1.0949                 1.3403
 Frc consts  --      1.5945                 1.3997                 1.7979
 IR Inten    --      3.9119                 3.8378                 2.1999

                     25                     26                     27
                      A                      A                      A
 Frequencies --   1702.3023              3115.4387              3125.7265
 Red. masses --      4.5318                 1.0849                 1.0810
 Frc consts  --      7.7375                 6.2040                 6.2226
 IR Inten    --     23.8439                10.6727                22.8236

                     28                     29                     30
                      A                      A                      A
 Frequencies --   3129.9715              3137.3338              3143.1817
 Red. masses --      1.0546                 1.0577                 1.0638
 Frc consts  --      6.0874                 6.1339                 6.1922
 IR Inten    --     23.0230                 8.0075                 4.3661

                     31                     32                     33
                      A                      A                      A
 Frequencies --   3206.5570              3219.3494              3221.8140
 Red. masses --      1.1191                 1.1158                 1.1157
 Frc consts  --      6.7792                 6.8134                 6.8237
 IR Inten    --      0.3335                21.4893                10.1489

 - Thermochemistry -
 -------------------
 Temperature   298.150 Kelvin.  Pressure   1.00000 Atm.
 Atom     1 has atomic number  6 and mass  12.00000

 Molecular mass:    68.06260 amu.
 Principal axes and moments of inertia in atomic units:
                           1         2         3
     Eigenvalues --   154.18155 493.40257 546.78714
           X            0.99992   0.00589   0.01133
           Y           -0.00611   0.99980   0.01929
           Z           -0.01121  -0.01936   0.99975
 This molecule is an asymmetric top.
 Rotational symmetry number  1.
 Rotational temperatures (Kelvin)      0.56177     0.17554     0.15841
 Rotational constants (GHZ):          11.70530     3.65775     3.30063
 Zero-point vibrational energy     300267.5 (Joules/Mol)
                                   71.76566 (Kcal/Mol)
 Warning -- explicit consideration of   4 degrees of freedom as
           vibrations may cause significant error
 Vibrational temperatures:    134.79   384.49   443.30   769.79   955.26
          (Kelvin)           1090.01  1170.66  1203.64  1307.93  1361.47
                             1364.71  1476.36  1513.28  1557.47  1577.83
                             1614.54  1631.20  1727.63  1765.23  1920.99
                             2018.34  2099.20  2119.33  2170.93  2449.23
                             4482.42  4497.22  4503.33  4513.92  4522.34
                             4613.52  4631.93  4635.47

 Zero-point correction=                           0.114366 (Hartree/Particle)
 Thermal correction to Energy=                    0.119750
 Thermal correction to Enthalpy=                  0.120694
 Thermal correction to Gibbs Free Energy=         0.086079
 Sum of electronic and zero-point Energies=           -195.252950
 Sum of electronic and thermal Energies=              -195.247566
 Sum of electronic and thermal Enthalpies=            -195.246622
 Sum of electronic and thermal Free Energies=         -195.281236

                     E (Thermal)             CV                S
                      KCal/Mol        Cal/Mol-Kelvin    Cal/Mol-Kelvin
 Total                   75.144             19.361             72.853
 Electronic               0.000              0.000              0.000
 Translational            0.889              2.981             38.571
 Rotational               0.889              2.981             25.234
 Vibrational             73.367             13.399              9.047
 Vibration     1          0.603              1.954              3.582
 Vibration     2          0.672              1.733              1.614
 Vibration     3          0.698              1.658              1.372
 Vibration     4          0.890              1.173              0.576

 Optimization completed.
    -- Stationary point found.
 Normal termination of Gaussian 16 at Fri Jun 10 22:13:49 2022.
