 Gaussian 16, Revision A.03,
 Gaussian 16:  ES64L-G16RevA.03 25-Dec-2016

 ----------------------------------------------------------------------
 # Opt=(TS, CalcFC, noeigentest, Z-matrix, MaxStep=10) geom=allcheckpoi
 nt guess=read Field=read NoSymm B3LYP/Def2TZVP freq=noraman pop=none
 ----------------------------------------------------------------------

 Structure from the checkpoint file:  "checkpoint.chk"
 -----------------
 ts_zmat_initalOpt
 -----------------
 Charge =  0 Multiplicity = 1

 SCF Done:  E(RB3LYP) =  -195.278240747     A.U. after   10 cycles
 SCF Done:  E(RB3LYP) =  -195.278246208     A.U. after    9 cycles
 Optimization completed.
    -- Stationary point found.
 Normal termination of Gaussian 16 at Fri Jun 10 02:52:56 2022.

 --------------------------------------------------------------------
 #N Geom=AllCheck Guess=TCheck SCRF=Check GenChk RB3LYP/def2TZVP Freq
 --------------------------------------------------------------------

 Structure from the checkpoint file:  "checkpoint.chk"
 -----------------
 ts_zmat_initalOpt
 -----------------
 Charge =  0 Multiplicity = 1

                          Input orientation:
 ---------------------------------------------------------------------
 Center     Atomic      Atomic             Coordinates (Angstroms)
 Number     Number       Type             X           Y           Z
 ---------------------------------------------------------------------
      1          6           0        0.000000    0.000000    0.000000
      2          6           0        0.000000    0.000000    1.506197
      3          6           0        1.417381    0.000000   -0.339427
      4          1           0       -0.555822    0.845015   -0.412922
      5          1           0       -0.496500   -0.917419   -0.334563
      6          1           0        1.903688    0.833595   -0.822181
      7          1           0        2.015581   -0.864998   -0.091618
      8          6           0        0.745011    0.885436    2.271816
      9          1           0       -0.646216   -0.714960    2.007079
     10          6           0        1.949257    1.465689    1.962613
     11          1           0        0.278645    1.168874    3.218704
     12          1           0        2.691862    0.932587    1.393483
     13          1           0        2.255353    2.397887    2.426192
 ---------------------------------------------------------------------

 SCF Done:  E(RB3LYP) =  -195.278246208     A.U. after    1 cycles

 Isotropic polarizability for W=    0.000000       74.74 Bohr**3.
 End of Minotr F.D. properties file   721 does not exist.

 ******    1 imaginary frequencies (negative Signs) ******

                      1                      2                      3
                      A                      A                      A
 Frequencies --   -419.5849               220.2635               260.3495
 Red. masses --      1.9547                 2.2180                 2.2912
 Frc consts  --      0.2028                 0.0634                 0.0915
 IR Inten    --      0.1387                 0.5213                 1.2542

                      4                      5                      6
                      A                      A                      A
 Frequencies --    372.1444               543.8362               583.8619
 Red. masses --      2.2480                 1.2733                 1.3135
 Frc consts  --      0.1834                 0.2219                 0.2638
 IR Inten    --      6.8642                 7.3975                 3.9218

                      7                      8                      9
                      A                      A                      A
 Frequencies --    647.7250               700.4970               753.9259
 Red. masses --      1.4427                 1.3977                 1.2404
 Frc consts  --      0.3566                 0.4041                 0.4154
 IR Inten    --     20.5492                37.5332                58.3355

                     10                     11                     12
                      A                      A                      A
 Frequencies --    771.8634               831.9249               897.7441
 Red. masses --      1.3908                 1.5274                 1.4789
 Frc consts  --      0.4882                 0.6228                 0.7022
 IR Inten    --     10.5968                 9.0307                 4.3569

                     13                     14                     15
                      A                      A                      A
 Frequencies --    931.3650              1031.0461              1062.8608
 Red. masses --      1.8517                 1.5590                 1.6728
 Frc consts  --      0.9464                 0.9764                 1.1134
 IR Inten    --      3.2340                 0.1923                15.3442

                     16                     17                     18
                      A                      A                      A
 Frequencies --   1129.6300              1153.9572              1221.3839
 Red. masses --      2.2099                 1.9479                 1.2358
 Frc consts  --      1.6615                 1.5282                 1.0862
 IR Inten    --     17.9435                 0.1443                 5.7354

                     19                     20                     21
                      A                      A                      A
 Frequencies --   1266.4631              1306.0296              1400.0678
 Red. masses --      1.2595                 1.3047                 1.3515
 Frc consts  --      1.1902                 1.3112                 1.5608
 IR Inten    --     18.5383                 6.3828                 2.7021

                     22                     23                     24
                      A                      A                      A
 Frequencies --   1422.6202              1480.8711              1496.8785
 Red. masses --      1.1100                 1.2587                 1.4577
 Frc consts  --      1.3235                 1.6263                 1.9244
 IR Inten    --     12.3377                 6.8396                 2.1159

                     25                     26                     27
                      A                      A                      A
 Frequencies --   1590.2404              3014.8923              3060.2764
 Red. masses --      4.0769                 1.0585                 1.0955
 Frc consts  --      6.0745                 5.6688                 6.0449
 IR Inten    --     20.3706                12.2814                12.1524

                     28                     29                     30
                      A                      A                      A
 Frequencies --   3062.7242              3132.1295              3143.9537
 Red. masses --      1.0887                 1.0648                 1.0883
 Frc consts  --      6.0168                 6.1543                 6.3379
 IR Inten    --     14.2330                20.5281                 6.5407

                     31                     32                     33
                      A                      A                      A
 Frequencies --   3163.8663              3254.5728              3266.1035
 Red. masses --      1.0513                 1.1038                 1.1185
 Frc consts  --      6.2004                 6.8886                 7.0299
 IR Inten    --      5.0434                10.5507                 3.7266

 - Thermochemistry -
 -------------------
 Temperature   298.150 Kelvin.  Pressure   1.00000 Atm.
 Atom     1 has atomic number  6 and mass  12.00000

 Molecular mass:    68.06260 amu.
 Principal axes and moments of inertia in atomic units:
                           1         2         3
     Eigenvalues --   212.29086 402.63635 565.96076
           X            0.31808   0.85260  -0.41460
           Y            0.47585   0.23466   0.84764
           Z            0.81999  -0.46691  -0.33107
 This molecule is an asymmetric top.
 Rotational symmetry number  1.
 Rotational temperatures (Kelvin)      0.40800     0.21512     0.15304
 Rotational constants (GHZ):           8.50127     4.48231     3.18881
    1 imaginary frequencies ignored.
 Zero-point vibrational energy     288156.9 (Joules/Mol)
                                   68.87115 (Kcal/Mol)
 Warning -- explicit consideration of   5 degrees of freedom as
           vibrations may cause significant error
 Vibrational temperatures:    316.91   374.58   535.43   782.46   840.05
          (Kelvin)            931.93  1007.86  1084.73  1110.54  1196.95
                             1291.65  1340.03  1483.45  1529.22  1625.29
                             1660.29  1757.30  1822.16  1879.09  2014.39
                             2046.83  2130.64  2153.67  2288.00  4337.76
                             4403.06  4406.58  4506.44  4523.45  4552.10
                             4682.60  4699.19

 Zero-point correction=                           0.109753 (Hartree/Particle)
 Thermal correction to Energy=                    0.115058
 Thermal correction to Enthalpy=                  0.116002
 Thermal correction to Gibbs Free Energy=         0.081932
 Sum of electronic and zero-point Energies=           -195.168493
 Sum of electronic and thermal Energies=              -195.163188
 Sum of electronic and thermal Enthalpies=            -195.162244
 Sum of electronic and thermal Free Energies=         -195.196314

                     E (Thermal)             CV                S
                      KCal/Mol        Cal/Mol-Kelvin    Cal/Mol-Kelvin
 Total                   72.200             20.083             71.708
 Electronic               0.000              0.000              0.000
 Translational            0.889              2.981             38.571
 Rotational               0.889              2.981             25.384
 Vibrational             70.423             14.121              7.752
 Vibration     1          0.647              1.810              1.957
 Vibration     2          0.668              1.745              1.659
 Vibration     3          0.744              1.529              1.071
 Vibration     4          0.899              1.153              0.557
 Vibration     5          0.941              1.066              0.478

 Optimization completed.
    -- Stationary point found.
 Normal termination of Gaussian 16 at Fri Jun 10 02:55:12 2022.
