 Gaussian 16, Revision A.03,
 Gaussian 16:  ES64L-G16RevA.03 25-Dec-2016

 --------------------------------------------------------------------
 # Opt=(TS, CalcFC, noeigentest) B3LYP/Def2TZVP freq=noraman pop=none
 --------------------------------------------------------------------

 ------------
 ts_initalOpt
 ------------
 Symbolic Z-matrix:
 Charge =  0 Multiplicity = 1

 SCF Done:  E(RB3LYP) =  -669.437795004     A.U. after   17 cycles
 Optimization completed.
    -- Stationary point found.
 Normal termination of Gaussian 16 at Fri Jun 10 02:57:09 2022.

 --------------------------------------------------------------------
 #N Geom=AllCheck Guess=TCheck SCRF=Check GenChk RB3LYP/def2TZVP Freq
 --------------------------------------------------------------------

 Structure from the checkpoint file:  "checkpoint.chk"
 ------------
 ts_initalOpt
 ------------
 Charge =  0 Multiplicity = 1

                         Standard orientation:
 ---------------------------------------------------------------------
 Center     Atomic      Atomic             Coordinates (Angstroms)
 Number     Number       Type             X           Y           Z
 ---------------------------------------------------------------------
      1          6           0        1.780179    0.477309    1.424031
      2          6           0        0.709499   -0.423621    1.447011
      3          6           0        2.080769   -0.345311   -0.850849
      4          6           0        2.470689    0.576979    0.246801
      5          6           0       -0.332501    0.531590   -0.476739
      6          6           0        0.690059    0.090549   -1.469579
      7          1           0        0.304469   -0.742261   -2.054259
      8          1           0        0.890699    0.939919   -2.124279
      9          1           0        2.815529   -0.333891   -1.655409
     10          1           0       -0.055621   -0.311201    2.206761
     11          6           0        1.935718   -1.767001   -0.275069
     12          1           0        1.679308   -2.462491   -1.075429
     13          1           0        2.892478   -2.087931    0.141291
     14          6           0        0.845628   -1.775641    0.808271
     15          1           0       -0.111682   -2.113441    0.408751
     16          1           0        1.097878   -2.481971    1.607881
     17          1           0        3.247689    1.315389    0.107821
     18          1           0        1.884969    1.233559    2.190371
     19          7           0       -0.259381    1.803229    0.014861
     20          8           0        0.814669    2.378489   -0.272349
     21          6           0       -1.633241   -0.163910   -0.392369
     22          8           0       -1.859141   -1.222110   -0.945789
     23          8           0       -2.540461    0.470480    0.369081
     24          6           0       -3.829241   -0.152280    0.453301
     25          1           0       -4.424441    0.501361    1.085201
     26          1           0       -4.279441   -0.241140   -0.535109
     27          1           0       -3.752051   -1.145360    0.896001
 ---------------------------------------------------------------------

 SCF Done:  E(RB3LYP) =  -669.437795004     A.U. after    1 cycles

 Isotropic polarizability for W=    0.000000      137.79 Bohr**3.
 End of Minotr F.D. properties file   721 does not exist.

 ******    1 imaginary frequencies (negative Signs) ******

                      1                      2                      3
                      A                      A                      A
 Frequencies --   -265.7685                54.7810                90.6237
 Red. masses --      6.0461                 5.1600                 3.4811
 Frc consts  --      0.2516                 0.0091                 0.0168
 IR Inten    --     21.0694                 3.1324                 1.6942

                      4                      5                      6
                      A                      A                      A
 Frequencies --     98.7712               143.5230               175.5069
 Red. masses --      3.0815                 1.2555                 4.1949
 Frc consts  --      0.0177                 0.0152                 0.0761
 IR Inten    --      0.4710                 0.1126                 0.3353

                      7                      8                      9
                      A                      A                      A
 Frequencies --    187.3821               208.9692               262.5890
 Red. masses --      5.0101                 7.2892                 2.1044
 Frc consts  --      0.1036                 0.1875                 0.0855
 IR Inten    --      8.2582                18.6680                 2.9057

                     10                     11                     12
                      A                      A                      A
 Frequencies --    286.6056               331.2671               340.0786
 Red. masses --      3.8925                 5.2461                 4.6531
 Frc consts  --      0.1884                 0.3392                 0.3171
 IR Inten    --      3.7222                24.1470                 4.0038

                     13                     14                     15
                      A                      A                      A
 Frequencies --    390.2543               403.4869               450.5856
 Red. masses --      2.7490                 2.5665                 5.1252
 Frc consts  --      0.2467                 0.2462                 0.6131
 IR Inten    --      0.7343                 1.4995                 9.9050

                     16                     17                     18
                      A                      A                      A
 Frequencies --    496.4612               500.8153               561.4602
 Red. masses --      3.8418                 8.8147                 3.7461
 Frc consts  --      0.5579                 1.3026                 0.6958
 IR Inten    --      1.1268                 0.8182                 1.9500

                     19                     20                     21
                      A                      A                      A
 Frequencies --    571.2168               655.6787               741.0693
 Red. masses --      5.9079                 4.1882                 3.7610
 Frc consts  --      1.1358                 1.0609                 1.2169
 IR Inten    --      4.4671                 1.0350                 2.2984

                     22                     23                     24
                      A                      A                      A
 Frequencies --    766.3099               780.8621               793.8075
 Red. masses --      1.5312                 3.5961                 2.5175
 Frc consts  --      0.5298                 1.2919                 0.9347
 IR Inten    --     12.8222                 7.0268                15.2060

                     25                     26                     27
                      A                      A                      A
 Frequencies --    806.5510               844.1547               857.6230
 Red. masses --      2.0529                 3.0378                 2.9166
 Frc consts  --      0.7868                 1.2754                 1.2639
 IR Inten    --      1.0550                 1.6141                 0.4512

                     28                     29                     30
                      A                      A                      A
 Frequencies --    902.7327               923.9732               960.3350
 Red. masses --      2.3357                 1.8548                 2.4001
 Frc consts  --      1.1214                 0.9329                 1.3041
 IR Inten    --     24.3061                 4.5843                 9.3635

                     31                     32                     33
                      A                      A                      A
 Frequencies --    976.9585               983.9153              1001.3584
 Red. masses --      2.0915                 2.5173                 2.3284
 Frc consts  --      1.1762                 1.4358                 1.3756
 IR Inten    --      5.4679                 4.7775                 5.7963

                     34                     35                     36
                      A                      A                      A
 Frequencies --   1022.8315              1060.8681              1065.7994
 Red. masses --      2.4372                 2.1444                 2.0328
 Frc consts  --      1.5023                 1.4219                 1.3605
 IR Inten    --     18.0794                27.4796                 0.9667

                     37                     38                     39
                      A                      A                      A
 Frequencies --   1133.0326              1143.2132              1169.5961
 Red. masses --      1.6855                 2.0597                 1.0444
 Frc consts  --      1.2749                 1.5860                 0.8418
 IR Inten    --     40.5810                87.3004                 3.3359

                     40                     41                     42
                      A                      A                      A
 Frequencies --   1172.9232              1190.4921              1205.6978
 Red. masses --      1.2766                 1.1894                 1.6054
 Frc consts  --      1.0348                 0.9932                 1.3751
 IR Inten    --      1.0182                16.3277               181.6077

                     43                     44                     45
                      A                      A                      A
 Frequencies --   1212.3210              1224.0682              1249.2292
 Red. masses --      1.6926                 1.4578                 1.2924
 Frc consts  --      1.4657                 1.2869                 1.1883
 IR Inten    --    110.5133                 4.9067                25.2916

                     46                     47                     48
                      A                      A                      A
 Frequencies --   1303.3259              1322.3419              1335.0821
 Red. masses --      2.7364                 1.4623                 2.0003
 Frc consts  --      2.7386                 1.5065                 2.1007
 IR Inten    --    103.5383                29.4527               166.5109

                     49                     50                     51
                      A                      A                      A
 Frequencies --   1360.6821              1377.1443              1388.7381
 Red. masses --      1.3309                 1.7170                 1.7369
 Frc consts  --      1.4518                 1.9185                 1.9737
 IR Inten    --     13.5307                 6.2125                54.0126

                     52                     53                     54
                      A                      A                      A
 Frequencies --   1399.8792              1420.1328              1466.0428
 Red. masses --      5.0313                 1.7546                 1.1849
 Frc consts  --      5.8092                 2.0850                 1.5004
 IR Inten    --     82.1263                 2.2727                12.3400

                     55                     56                     57
                      A                      A                      A
 Frequencies --   1467.7560              1475.5886              1485.5463
 Red. masses --      1.3289                 1.2578                 1.0468
 Frc consts  --      1.6867                 1.6136                 1.3612
 IR Inten    --     36.1918                35.2016                 7.8830

                     58                     59                     60
                      A                      A                      A
 Frequencies --   1498.0008              1503.2780              1507.1759
 Red. masses --      1.0551                 1.1113                 1.7394
 Frc consts  --      1.3949                 1.4796                 2.3280
 IR Inten    --      8.5804                10.9191                 3.2336

                     61                     62                     63
                      A                      A                      A
 Frequencies --   1561.9176              1724.0495              3009.4825
 Red. masses --      3.7187                11.0997                 1.0731
 Frc consts  --      5.3452                19.4384                 5.7265
 IR Inten    --     33.1791               220.2458                10.8244

                     64                     65                     66
                      A                      A                      A
 Frequencies --   3046.6333              3049.3894              3056.3700
 Red. masses --      1.0615                 1.0301                 1.0619
 Frc consts  --      5.8049                 5.6438                 5.8443
 IR Inten    --     30.5556                38.6384                 9.1173

                     67                     68                     69
                      A                      A                      A
 Frequencies --   3070.4711              3083.0030              3089.5200
 Red. masses --      1.0908                 1.0858                 1.1009
 Frc consts  --      6.0590                 6.0806                 6.1915
 IR Inten    --      2.5860                33.7279                12.4618

                     70                     71                     72
                      A                      A                      A
 Frequencies --   3116.2102              3124.5253              3152.4605
 Red. masses --      1.1063                 1.1017                 1.1055
 Frc consts  --      6.3295                 6.3369                 6.4731
 IR Inten    --     20.0015                 1.6122                14.9124

                     73                     74                     75
                      A                      A                      A
 Frequencies --   3169.2407              3189.6906              3211.3477
 Red. masses --      1.0884                 1.0906                 1.0959
 Frc consts  --      6.4407                 6.5378                 6.6590
 IR Inten    --      4.4663                 2.6976                 3.1514

 - Thermochemistry -
 -------------------
 Temperature   298.150 Kelvin.  Pressure   1.00000 Atm.
 Atom     1 has atomic number  6 and mass  12.00000

 Molecular mass:   195.08954 amu.
 Principal axes and moments of inertia in atomic units:
                           1         2         3
     Eigenvalues --  1522.278743005.716823487.48897
           X            0.99985  -0.00806  -0.01504
           Y            0.00799   0.99996  -0.00450
           Z            0.01508   0.00437   0.99988
 This molecule is an asymmetric top.
 Rotational symmetry number  1.
 Warning -- assumption of classical behavior for rotation
           may cause significant error
 Rotational temperatures (Kelvin)      0.05690     0.02882     0.02484
 Rotational constants (GHZ):           1.18555     0.60044     0.51749
    1 imaginary frequencies ignored.
 Zero-point vibrational energy     576389.5 (Joules/Mol)
                                  137.76041 (Kcal/Mol)
 Warning -- explicit consideration of  18 degrees of freedom as
           vibrations may cause significant error
 Vibrational temperatures:     78.82   130.39   142.11   206.50   252.52
          (Kelvin)            269.60   300.66   377.81   412.36   476.62
                              489.30   561.49   580.53   648.29   714.30
                              720.56   807.82   821.85   943.38  1066.23
                             1102.55  1123.49  1142.11  1160.45  1214.55
                             1233.93  1298.83  1329.39  1381.71  1405.63
                             1415.63  1440.73  1471.63  1526.35  1533.45
                             1630.18  1644.83  1682.79  1687.57  1712.85
                             1734.73  1744.26  1761.16  1797.36  1875.20
                             1902.56  1920.89  1957.72  1981.40  1998.08
                             2014.11  2043.25  2109.31  2111.77  2123.04
                             2137.37  2155.29  2162.88  2168.49  2247.25
                             2480.52  4329.97  4383.43  4387.39  4397.43
                             4417.72  4435.75  4445.13  4483.53  4495.50
                             4535.69  4559.83  4589.25  4620.41

 Zero-point correction=                           0.219535 (Hartree/Particle)
 Thermal correction to Energy=                    0.231736
 Thermal correction to Enthalpy=                  0.232680
 Thermal correction to Gibbs Free Energy=         0.181294
 Sum of electronic and zero-point Energies=           -669.218260
 Sum of electronic and thermal Energies=              -669.206059
 Sum of electronic and thermal Enthalpies=            -669.205115
 Sum of electronic and thermal Free Energies=         -669.256501

                     E (Thermal)             CV                S
                      KCal/Mol        Cal/Mol-Kelvin    Cal/Mol-Kelvin
 Total                  145.417             47.560            108.152
 Electronic               0.000              0.000              0.000
 Translational            0.889              2.981             41.710
 Rotational               0.889              2.981             31.146
 Vibrational            143.639             41.598             35.296
 Vibration     1          0.596              1.976              4.637
 Vibration     2          0.602              1.956              3.647
 Vibration     3          0.604              1.950              3.478
 Vibration     4          0.616              1.910              2.756
 Vibration     5          0.627              1.873              2.376
 Vibration     6          0.632              1.857              2.254
 Vibration     7          0.642              1.827              2.053
 Vibration     8          0.670              1.741              1.644
 Vibration     9          0.684              1.699              1.494
 Vibration    10          0.714              1.613              1.254
 Vibration    11          0.720              1.595              1.212
 Vibration    12          0.758              1.491              0.999
 Vibration    13          0.769              1.463              0.950
 Vibration    14          0.809              1.360              0.794
 Vibration    15          0.852              1.258              0.667
 Vibration    16          0.856              1.248              0.656
 Vibration    17          0.917              1.115              0.521
 Vibration    18          0.927              1.094              0.502

 Optimization completed.
    -- Stationary point found.
 Normal termination of Gaussian 16 at Fri Jun 10 03:38:34 2022.
