 Gaussian 16, Revision A.03,
 Gaussian 16:  ES64L-G16RevA.03 25-Dec-2016

 ----------------------------------------------------------------------
 # Opt=(Z-matrix, MaxStep=10) B3LYP/Def2TZVP Field=read NoSymm freq=nor
 aman pop=none
 ----------------------------------------------------------------------

 ------------------
 int_zmat_initalOpt
 ------------------
 Symbolic Z-matrix:
 Charge =  0 Multiplicity = 1

 SCF Done:  E(RB3LYP) =  -195.367883711     A.U. after   13 cycles
 SCF Done:  E(RB3LYP) =  -195.367887118     A.U. after    7 cycles
 SCF Done:  E(RB3LYP) =  -195.367888400     A.U. after    7 cycles
 SCF Done:  E(RB3LYP) =  -195.367889411     A.U. after    7 cycles
 SCF Done:  E(RB3LYP) =  -195.367890070     A.U. after    7 cycles
 SCF Done:  E(RB3LYP) =  -195.367890279     A.U. after    7 cycles
 Optimization completed.
    -- Stationary point found.
 Normal termination of Gaussian 16 at Fri Jun 10 22:43:40 2022.

 --------------------------------------------------------------------
 #N Geom=AllCheck Guess=TCheck SCRF=Check GenChk RB3LYP/def2TZVP Freq
 --------------------------------------------------------------------

 Structure from the checkpoint file:  "checkpoint.chk"
 ------------------
 int_zmat_initalOpt
 ------------------
 Charge =  0 Multiplicity = 1

                          Input orientation:
 ---------------------------------------------------------------------
 Center     Atomic      Atomic             Coordinates (Angstroms)
 Number     Number       Type             X           Y           Z
 ---------------------------------------------------------------------
      1          1           0        0.000000    0.000000    0.000000
      2          6           0        0.000000    0.000000    1.082781
      3          1           0        0.968006    0.000000    1.568912
      4          6           0       -1.136041    0.006757    1.772578
      5          1           0       -2.075408    0.025245    1.223636
      6          6           0       -1.280308   -0.019897    3.246817
      7          1           0       -1.986914    0.710239    3.627995
      8          6           0       -0.153263   -0.379804    4.170776
      9          6           0       -1.293362   -1.341802    3.991298
     10          1           0       -0.078382    0.156315    5.107042
     11          1           0        0.800680   -0.648298    3.738350
     12          1           0       -2.001183   -1.465141    4.799908
     13          1           0       -1.106809   -2.235597    3.410881
 ---------------------------------------------------------------------

 SCF Done:  E(RB3LYP) =  -195.367890279     A.U. after    1 cycles

 Isotropic polarizability for W=    0.000000       58.28 Bohr**3.
 End of Minotr F.D. properties file   721 does not exist.

                      1                      2                      3
                      A                      A                      A
 Frequencies --     90.8886               267.7656               306.0968
 Red. masses --      2.0357                 2.6261                 1.8147
 Frc consts  --      0.0099                 0.1109                 0.1002
 IR Inten    --      0.5998                 0.4540                 0.8591

                      4                      5                      6
                      A                      A                      A
 Frequencies --    535.6058               664.0032               758.8249
 Red. masses --      2.0790                 1.6313                 1.7031
 Frc consts  --      0.3514                 0.4238                 0.5778
 IR Inten    --      0.2690                14.4026                 1.8581

                      7                      8                      9
                      A                      A                      A
 Frequencies --    814.3487               837.2835               908.7188
 Red. masses --      1.2524                 1.4284                 2.5534
 Frc consts  --      0.4893                 0.5900                 1.2423
 IR Inten    --      0.4599                 8.5996                 7.1278

                     10                     11                     12
                      A                      A                      A
 Frequencies --    936.7552               948.1781              1025.5734
 Red. masses --      1.3719                 2.5022                 1.1079
 Frc consts  --      0.7093                 1.3254                 0.6865
 IR Inten    --     40.7001                13.4150                17.5402

                     13                     14                     15
                      A                      A                      A
 Frequencies --   1052.9883              1086.0416              1096.1767
 Red. masses --      1.2012                 1.3414                 1.5510
 Frc consts  --      0.7847                 0.9322                 1.0980
 IR Inten    --      6.3828                 3.5811                 9.3212

                     16                     17                     18
                      A                      A                      A
 Frequencies --   1121.5572              1133.5855              1201.4303
 Red. masses --      1.4813                 1.2145                 1.3849
 Frc consts  --      1.0978                 0.9195                 1.1777
 IR Inten    --      1.1269                 0.5494                 2.2025

                     19                     20                     21
                      A                      A                      A
 Frequencies --   1227.3561              1334.5087              1404.3227
 Red. masses --      1.8925                 1.2655                 1.5259
 Frc consts  --      1.6797                 1.3279                 1.7730
 IR Inten    --      2.3974                 0.1990                 0.1018

                     22                     23                     24
                      A                      A                      A
 Frequencies --   1457.7467              1473.7322              1509.1487
 Red. masses --      1.2802                 1.0943                 1.3341
 Frc consts  --      1.6028                 1.4004                 1.7902
 IR Inten    --      3.6361                 4.1231                 2.4606

                     25                     26                     27
                      A                      A                      A
 Frequencies --   1700.0622              3111.6298              3128.5593
 Red. masses --      4.5039                 1.0841                 1.0802
 Frc consts  --      7.6695                 6.1845                 6.2294
 IR Inten    --     28.8263                17.9675                17.6228

                     28                     29                     30
                      A                      A                      A
 Frequencies --   3132.0776              3138.5612              3142.6846
 Red. masses --      1.0558                 1.0597                 1.0617
 Frc consts  --      6.1024                 6.1501                 6.1778
 IR Inten    --     19.0535                 7.9283                 5.2441

                     31                     32                     33
                      A                      A                      A
 Frequencies --   3209.1098              3215.9947              3223.9219
 Red. masses --      1.1193                 1.1155                 1.1162
 Frc consts  --      6.7913                 6.7976                 6.8351
 IR Inten    --      0.2858                20.5126                12.0355

 - Thermochemistry -
 -------------------
 Temperature   298.150 Kelvin.  Pressure   1.00000 Atm.
 Atom     1 has atomic number  1 and mass   1.00783

 Molecular mass:    68.06260 amu.
 Principal axes and moments of inertia in atomic units:
                           1         2         3
     Eigenvalues --   154.61848 493.10632 545.17894
           X           -0.16632   0.97190  -0.16660
           Y           -0.27493   0.11655   0.95437
           Z            0.94697   0.20453   0.24782
 This molecule is an asymmetric top.
 Rotational symmetry number  1.
 Rotational temperatures (Kelvin)      0.56018     0.17565     0.15887
 Rotational constants (GHZ):          11.67222     3.65994     3.31036
 Zero-point vibrational energy     300234.2 (Joules/Mol)
                                   71.75770 (Kcal/Mol)
 Warning -- explicit consideration of   4 degrees of freedom as
           vibrations may cause significant error
 Vibrational temperatures:    130.77   385.26   440.40   770.62   955.35
          (Kelvin)           1091.78  1171.67  1204.66  1307.44  1347.78
                             1364.22  1475.57  1515.02  1562.57  1577.15
                             1613.67  1630.98  1728.59  1765.89  1920.06
                             2020.51  2097.37  2120.37  2171.33  2446.01
                             4476.94  4501.30  4506.36  4515.69  4521.62
                             4617.19  4627.10  4638.50

 Zero-point correction=                           0.114353 (Hartree/Particle)
 Thermal correction to Energy=                    0.119744
 Thermal correction to Enthalpy=                  0.120688
 Thermal correction to Gibbs Free Energy=         0.086042
 Sum of electronic and zero-point Energies=           -195.253537
 Sum of electronic and thermal Energies=              -195.248146
 Sum of electronic and thermal Enthalpies=            -195.247202
 Sum of electronic and thermal Free Energies=         -195.281848

                     E (Thermal)             CV                S
                      KCal/Mol        Cal/Mol-Kelvin    Cal/Mol-Kelvin
 Total                   75.141             19.369             72.919
 Electronic               0.000              0.000              0.000
 Translational            0.889              2.981             38.571
 Rotational               0.889              2.981             25.233
 Vibrational             73.363             13.408              9.114
 Vibration     1          0.602              1.956              3.641
 Vibration     2          0.673              1.732              1.611
 Vibration     3          0.696              1.662              1.383
 Vibration     4          0.891              1.171              0.575

 Optimization completed.
    -- Stationary point found.
 Normal termination of Gaussian 16 at Fri Jun 10 22:46:23 2022.
