 Gaussian 16, Revision A.03,
 Gaussian 16:  ES64L-G16RevA.03 25-Dec-2016

 ----------------------------------------------------------------------
 # Opt=(Z-matrix, MaxStep=10) B3LYP/Def2TZVP geom=allcheckpoint guess=r
 ead Field=read NoSymm freq=noraman pop=none
 ----------------------------------------------------------------------

 Structure from the checkpoint file:  "checkpoint.chk"
 ------------------
 int_zmat_initalOpt
 ------------------
 Charge =  0 Multiplicity = 1

 SCF Done:  E(RB3LYP) =  -195.370347929     A.U. after   10 cycles
 SCF Done:  E(RB3LYP) =  -195.370352127     A.U. after    7 cycles
 SCF Done:  E(RB3LYP) =  -195.370353519     A.U. after    7 cycles
 SCF Done:  E(RB3LYP) =  -195.370354913     A.U. after    7 cycles
 SCF Done:  E(RB3LYP) =  -195.370356206     A.U. after    7 cycles
 SCF Done:  E(RB3LYP) =  -195.370357074     A.U. after    7 cycles
 SCF Done:  E(RB3LYP) =  -195.370357647     A.U. after    7 cycles
 SCF Done:  E(RB3LYP) =  -195.370357954     A.U. after    7 cycles
 Optimization completed.
    -- Stationary point found.
 Normal termination of Gaussian 16 at Fri Jun 10 23:40:28 2022.

 --------------------------------------------------------------------
 #N Geom=AllCheck Guess=TCheck SCRF=Check GenChk RB3LYP/def2TZVP Freq
 --------------------------------------------------------------------

 Structure from the checkpoint file:  "checkpoint.chk"
 ------------------
 int_zmat_initalOpt
 ------------------
 Charge =  0 Multiplicity = 1

                          Input orientation:
 ---------------------------------------------------------------------
 Center     Atomic      Atomic             Coordinates (Angstroms)
 Number     Number       Type             X           Y           Z
 ---------------------------------------------------------------------
      1          1           0        0.000000    0.000000    0.000000
      2          6           0        0.000000    0.000000    1.083801
      3          1           0        0.968625    0.000000    1.568472
      4          6           0       -1.135312    0.014461    1.777617
      5          1           0       -2.074913    0.035301    1.227544
      6          6           0       -1.283430   -0.009034    3.249110
      7          1           0       -2.044656    0.669016    3.619661
      8          6           0       -0.140784   -0.283740    4.184595
      9          6           0       -1.204243   -1.325398    4.006785
     10          1           0       -0.113456    0.263620    5.116546
     11          1           0        0.834537   -0.485648    3.763610
     12          1           0       -1.907037   -1.491701    4.811536
     13          1           0       -0.950799   -2.207459    3.433658
 ---------------------------------------------------------------------

 SCF Done:  E(RB3LYP) =  -195.370357954     A.U. after    1 cycles

 Isotropic polarizability for W=    0.000000       58.58 Bohr**3.
 End of Minotr F.D. properties file   721 does not exist.

                      1                      2                      3
                      A                      A                      A
 Frequencies --     83.2552               269.1254               299.7548
 Red. masses --      2.0004                 2.6549                 1.8172
 Frc consts  --      0.0082                 0.1133                 0.0962
 IR Inten    --      0.5855                 0.7875                 0.7868

                      4                      5                      6
                      A                      A                      A
 Frequencies --    536.4465               663.8263               760.5768
 Red. masses --      2.0777                 1.6166                 1.7578
 Frc consts  --      0.3523                 0.4197                 0.5991
 IR Inten    --      0.5716                15.0065                 2.4976

                      7                      8                      9
                      A                      A                      A
 Frequencies --    814.3783               836.8295               903.9354
 Red. masses --      1.2608                 1.4672                 1.9806
 Frc consts  --      0.4927                 0.6054                 0.9535
 IR Inten    --      0.3641                 7.5911                20.0196

                     10                     11                     12
                      A                      A                      A
 Frequencies --    917.2659               946.4099              1024.0085
 Red. masses --      1.5912                 2.5109                 1.1056
 Frc consts  --      0.7888                 1.3251                 0.6831
 IR Inten    --     27.9925                15.6436                17.8704

                     13                     14                     15
                      A                      A                      A
 Frequencies --   1054.8541              1090.5295              1093.9882
 Red. masses --      1.1836                 1.2750                 1.6159
 Frc consts  --      0.7760                 0.8934                 1.1395
 IR Inten    --      6.6453                 7.9750                 6.7638

                     16                     17                     18
                      A                      A                      A
 Frequencies --   1120.0668              1132.7433              1203.2440
 Red. masses --      1.4981                 1.2235                 1.3761
 Frc consts  --      1.1073                 0.9250                 1.1739
 IR Inten    --      1.5923                 0.7097                 2.6068

                     19                     20                     21
                      A                      A                      A
 Frequencies --   1228.4184              1333.1441              1407.1435
 Red. masses --      1.9015                 1.2711                 1.5096
 Frc consts  --      1.6906                 1.3310                 1.7612
 IR Inten    --      3.3003                 0.4262                 0.1159

                     22                     23                     24
                      A                      A                      A
 Frequencies --   1454.7976              1474.8974              1509.1801
 Red. masses --      1.2978                 1.0952                 1.3166
 Frc consts  --      1.6183                 1.4037                 1.7667
 IR Inten    --      3.7919                 4.8751                 3.7209

                     25                     26                     27
                      A                      A                      A
 Frequencies --   1694.2125              3100.0865              3131.4758
 Red. masses --      4.4178                 1.0829                 1.0651
 Frc consts  --      7.4713                 6.1319                 6.1540
 IR Inten    --     40.9742                27.8140                17.3517

                     28                     29                     30
                      A                      A                      A
 Frequencies --   3134.1000              3137.6618              3143.9817
 Red. masses --      1.0538                 1.0819                 1.0584
 Frc consts  --      6.0985                 6.2756                 6.1639
 IR Inten    --     16.0488                12.2844                 5.2571

                     31                     32                     33
                      A                      A                      A
 Frequencies --   3207.3399              3213.7814              3227.8694
 Red. masses --      1.1145                 1.1190                 1.1164
 Frc consts  --      6.7549                 6.8097                 6.8532
 IR Inten    --     24.4408                 2.1842                 7.9277

 - Thermochemistry -
 -------------------
 Temperature   298.150 Kelvin.  Pressure   1.00000 Atm.
 Atom     1 has atomic number  1 and mass   1.00783

 Molecular mass:    68.06260 amu.
 Principal axes and moments of inertia in atomic units:
                           1         2         3
     Eigenvalues --   155.71993 492.90742 541.36799
           X           -0.14789   0.97204  -0.18237
           Y           -0.25912   0.13987   0.95566
           Z            0.95445   0.18859   0.23119
 This molecule is an asymmetric top.
 Rotational symmetry number  1.
 Rotational temperatures (Kelvin)      0.55622     0.17572     0.15999
 Rotational constants (GHZ):          11.58966     3.66142     3.33367
 Zero-point vibrational energy     299959.6 (Joules/Mol)
                                   71.69206 (Kcal/Mol)
 Warning -- explicit consideration of   4 degrees of freedom as
           vibrations may cause significant error
 Vibrational temperatures:    119.79   387.21   431.28   771.83   955.10
          (Kelvin)           1094.30  1171.71  1204.01  1300.56  1319.74
                             1361.67  1473.32  1517.70  1569.03  1574.00
                             1611.53  1629.77  1731.20  1767.42  1918.10
                             2024.57  2093.13  2122.05  2171.37  2437.59
                             4460.33  4505.50  4509.27  4514.40  4523.49
                             4614.65  4623.91  4644.18

 Zero-point correction=                           0.114249 (Hartree/Particle)
 Thermal correction to Energy=                    0.119664
 Thermal correction to Enthalpy=                  0.120609
 Thermal correction to Gibbs Free Energy=         0.085864
 Sum of electronic and zero-point Energies=           -195.256109
 Sum of electronic and thermal Energies=              -195.250694
 Sum of electronic and thermal Enthalpies=            -195.249749
 Sum of electronic and thermal Free Energies=         -195.284494

                     E (Thermal)             CV                S
                      KCal/Mol        Cal/Mol-Kelvin    Cal/Mol-Kelvin
 Total                   75.091             19.412             73.126
 Electronic               0.000              0.000              0.000
 Translational            0.889              2.981             38.571
 Rotational               0.889              2.981             25.233
 Vibrational             73.313             13.451              9.322
 Vibration     1          0.600              1.961              3.813
 Vibration     2          0.674              1.730              1.602
 Vibration     3          0.692              1.674              1.418
 Vibration     4          0.891              1.169              0.573

                       ! Non-Optimized Parameters !
 Normal termination of Gaussian 16 at Fri Jun 10 23:42:40 2022.
