 Gaussian 16, Revision A.03,
 Gaussian 16:  ES64L-G16RevA.03 25-Dec-2016

 --------------------------
 # sp B3LYP/Def2TZVP NoSymm
 --------------------------

 ----------------------------
 int_initalOpt_zmat_AlignedSp
 ----------------------------
 Symbolic Z-matrix:
 Charge =  0 Multiplicity = 1

                          Input orientation:
 ---------------------------------------------------------------------
 Center     Atomic      Atomic             Coordinates (Angstroms)
 Number     Number       Type             X           Y           Z
 ---------------------------------------------------------------------
      1          1           0        0.000000    0.000000    0.000000
      2          6           0        0.000000    0.000000    1.082407
      3          1           0        0.967898    0.000000    1.568958
      4          6           0       -1.136416    0.003608    1.770481
      5          1           0       -2.075548    0.020745    1.221797
      6          6           0       -1.279640   -0.022321    3.245876
      7          1           0       -1.965950    0.726141    3.629425
      8          6           0       -0.158804   -0.408605    4.166571
      9          6           0       -1.324162   -1.342458    3.989190
     10          1           0       -0.067473    0.125636    5.102798
     11          1           0        0.786452   -0.700110    3.729970
     12          1           0       -2.033108   -1.449220    4.799574
     13          1           0       -1.160955   -2.240382    3.408156
 ---------------------------------------------------------------------

 SCF Done:  E(RB3LYP) =  -195.367314650     A.U. after   13 cycles

 Alpha  occ. eigenvalues --  -10.18343 -10.17640 -10.17501 -10.17344 -10.16187
 Alpha  occ. eigenvalues --   -0.86643  -0.76243  -0.63241  -0.60399  -0.54113
 Alpha  occ. eigenvalues --   -0.50618  -0.47318  -0.44430  -0.39079  -0.37052
 Alpha  occ. eigenvalues --   -0.35293  -0.32157  -0.30019  -0.25365
 Alpha virt. eigenvalues --    0.00268   0.04790   0.05826   0.07399   0.07533
 Alpha virt. eigenvalues --    0.10481   0.11526   0.12336   0.12954   0.15722
 Alpha virt. eigenvalues --    0.16347   0.17098   0.18595   0.19913   0.22286

 Mulliken charges:
               1
     1  H    0.109820
     2  C   -0.256203
     3  H    0.101637
     4  C   -0.126070
     5  H    0.098656
     6  C   -0.018760
     7  H    0.094053
     8  C   -0.215720
     9  C   -0.207541
    10  H    0.104706
    11  H    0.103630
    12  H    0.103107
    13  H    0.108684
 Sum of Mulliken charges =  -0.00000

 Dipole moment (field-independent basis, Debye):
    X=             -0.2446    Y=             -0.0422    Z=              0.3645  Tot=              0.4410
 Quadrupole moment (field-independent basis, Debye-Ang):
   XX=            -30.5027   YY=            -33.8459   ZZ=            -28.9530
   XY=             -0.3920   XZ=             -1.4526   YZ=              0.5197

 Normal termination of Gaussian 16 at Fri Jun 10 22:25:23 2022.
