 Gaussian 16, Revision A.03,
 Gaussian 16:  ES64L-G16RevA.03 25-Dec-2016

 ----------------------------------------------------------------------
 # Opt=(TS, CalcFC, noeigentest, Z-matrix, MaxStep=10) geom=allcheckpoi
 nt guess=read Field=read NoSymm B3LYP/Def2TZVP freq=noraman pop=none
 ----------------------------------------------------------------------

 Structure from the checkpoint file:  "checkpoint.chk"
 -----------------
 ts_zmat_initalOpt
 -----------------
 Charge =  0 Multiplicity = 1

 SCF Done:  E(RB3LYP) =  -269.398129082     A.U. after   10 cycles
 SCF Done:  E(RB3LYP) =  -269.398151655     A.U. after   11 cycles
 Optimization completed.
    -- Stationary point found.
 Normal termination of Gaussian 16 at Fri Jun 10 23:56:21 2022.

 --------------------------------------------------------------------
 #N Geom=AllCheck Guess=TCheck SCRF=Check GenChk RB3LYP/def2TZVP Freq
 --------------------------------------------------------------------

 Structure from the checkpoint file:  "checkpoint.chk"
 -----------------
 ts_zmat_initalOpt
 -----------------
 Charge =  0 Multiplicity = 1

                          Input orientation:
 ---------------------------------------------------------------------
 Center     Atomic      Atomic             Coordinates (Angstroms)
 Number     Number       Type             X           Y           Z
 ---------------------------------------------------------------------
      1          1           0        0.000000    0.000000    0.000000
      2          6           0        0.000000    0.000000    1.080868
      3          6           0        1.247334    0.000000    1.718406
      4          6           0       -1.133573    0.451087    1.776065
      5          1           0        2.109490    0.217241    1.076187
      6          8           0        1.500548   -0.063807    2.962628
      7          6           0       -1.145859    0.473581    3.159556
      8          1           0       -1.924083    0.933601    1.210962
      9          6           0       -0.234080   -0.356224    3.812208
     10          1           0       -1.753116    1.184399    3.705306
     11          1           0       -0.016833   -0.215445    4.864233
     12          1           0       -0.121818   -1.371244    3.455991
 ---------------------------------------------------------------------

 SCF Done:  E(RB3LYP) =  -269.398151655     A.U. after    1 cycles

 Isotropic polarizability for W=    0.000000       65.02 Bohr**3.
 End of Minotr F.D. properties file   721 does not exist.

 ******    1 imaginary frequencies (negative Signs) ******

                      1                      2                      3
                      A                      A                      A
 Frequencies --   -543.3137               245.1930               373.6836
 Red. masses --      5.6441                 2.8753                 2.5681
 Frc consts  --      0.9816                 0.1018                 0.2113
 IR Inten    --     44.4422                 5.1104                10.8675

                      4                      5                      6
                      A                      A                      A
 Frequencies --    423.8358               573.7105               590.0074
 Red. masses --      4.2995                 2.8815                 3.4363
 Frc consts  --      0.4551                 0.5588                 0.7048
 IR Inten    --      4.9724                22.9866                 5.3100

                      7                      8                      9
                      A                      A                      A
 Frequencies --    719.8997               798.3726               881.9800
 Red. masses --      1.2676                 1.3801                 2.0465
 Frc consts  --      0.3870                 0.5183                 0.9380
 IR Inten    --     46.2833                25.7093                19.7927

                     10                     11                     12
                      A                      A                      A
 Frequencies --    949.7891               960.2105               984.3164
 Red. masses --      1.6552                 1.4561                 1.4163
 Frc consts  --      0.8797                 0.7910                 0.8085
 IR Inten    --     40.0615                10.4664                 8.6021

                     13                     14                     15
                      A                      A                      A
 Frequencies --   1019.9439              1043.1847              1100.1121
 Red. masses --      3.5178                 1.7467                 1.3536
 Frc consts  --      2.1561                 1.1200                 0.9652
 IR Inten    --      7.6018                 7.5453                19.8638

                     16                     17                     18
                      A                      A                      A
 Frequencies --   1120.4961              1181.9047              1245.3442
 Red. masses --      1.5811                 1.2232                 1.3420
 Frc consts  --      1.1696                 1.0067                 1.2262
 IR Inten    --      2.5262                15.5221                 2.7890

                     19                     20                     21
                      A                      A                      A
 Frequencies --   1336.0672              1408.7279              1437.6995
 Red. masses --      1.4101                 1.7858                 1.8502
 Frc consts  --      1.4831                 2.0880                 2.2533
 IR Inten    --     50.5953                53.5685                62.3759

                     22                     23                     24
                      A                      A                      A
 Frequencies --   1495.0376              1550.4084              1611.9407
 Red. masses --      1.6925                 2.2235                 5.2264
 Frc consts  --      2.2289                 3.1491                 8.0012
 IR Inten    --     11.0924                23.9846               120.1072

                     25                     26                     27
                      A                      A                      A
 Frequencies --   3022.2257              3134.5180              3160.8178
 Red. masses --      1.0850                 1.0566                 1.0877
 Frc consts  --      5.8389                 6.1165                 6.4027
 IR Inten    --     56.1096                24.0514                 1.4959

                     28                     29                     30
                      A                      A                      A
 Frequencies --   3181.1033              3204.3822              3216.6905
 Red. masses --      1.0937                 1.0920                 1.1172
 Frc consts  --      6.5210                 6.6062                 6.8105
 IR Inten    --      3.6417                 2.3551                 9.8065

 - Thermochemistry -
 -------------------
 Temperature   298.150 Kelvin.  Pressure   1.00000 Atm.
 Atom     1 has atomic number  1 and mass   1.00783

 Molecular mass:    82.04186 amu.
 Principal axes and moments of inertia in atomic units:
                           1         2         3
     Eigenvalues --   324.71078 385.40276 665.24003
           X            0.95220   0.23945   0.18971
           Y           -0.15522  -0.15565   0.97554
           Z           -0.26312   0.95835   0.11104
 This molecule is an asymmetric top.
 Rotational symmetry number  1.
 Rotational temperatures (Kelvin)      0.26674     0.22474     0.13020
 Rotational constants (GHZ):           5.55800     4.68274     2.71292
    1 imaginary frequencies ignored.
 Zero-point vibrational energy     251045.9 (Joules/Mol)
                                   60.00142 (Kcal/Mol)
 Warning -- explicit consideration of   5 degrees of freedom as
           vibrations may cause significant error
 Vibrational temperatures:    352.78   537.65   609.81   825.44   848.89
          (Kelvin)           1035.78  1148.68  1268.97  1366.53  1381.53
                             1416.21  1467.47  1500.91  1582.82  1612.14
                             1700.50  1791.77  1922.30  2026.85  2068.53
                             2151.03  2230.69  2319.22  4348.31  4509.87
                             4547.71  4576.90  4610.39  4628.10

 Zero-point correction=                           0.095618 (Hartree/Particle)
 Thermal correction to Energy=                    0.100456
 Thermal correction to Enthalpy=                  0.101400
 Thermal correction to Gibbs Free Energy=         0.067600
 Sum of electronic and zero-point Energies=           -269.302533
 Sum of electronic and thermal Energies=              -269.297695
 Sum of electronic and thermal Enthalpies=            -269.296751
 Sum of electronic and thermal Free Energies=         -269.330551

                     E (Thermal)             CV                S
                      KCal/Mol        Cal/Mol-Kelvin    Cal/Mol-Kelvin
 Total                   63.037             18.183             71.139
 Electronic               0.000              0.000              0.000
 Translational            0.889              2.981             39.128
 Rotational               0.889              2.981             25.924
 Vibrational             61.260             12.222              6.087
 Vibration     1          0.660              1.771              1.765
 Vibration     2          0.745              1.526              1.065
 Vibration     3          0.786              1.418              0.879
 Vibration     4          0.930              1.088              0.497
 Vibration     5          0.947              1.053              0.467

                       ! Non-Optimized Parameters !
 Normal termination of Gaussian 16 at Fri Jun 10 23:59:00 2022.
