 Gaussian 16, Revision A.03,
 Gaussian 16:  ES64L-G16RevA.03 25-Dec-2016

 ----------------------------------------------------------------------
 # Opt=(Z-matrix, MaxStep=10) B3LYP/Def2TZVP geom=allcheckpoint guess=r
 ead Field=read NoSymm freq=noraman pop=none
 ----------------------------------------------------------------------

 Structure from the checkpoint file:  "checkpoint.chk"
 ------------------
 int_zmat_initalOpt
 ------------------
 Charge =  0 Multiplicity = 1

 SCF Done:  E(RB3LYP) =  -195.370234545     A.U. after    9 cycles
 SCF Done:  E(RB3LYP) =  -195.370243061     A.U. after    8 cycles
 SCF Done:  E(RB3LYP) =  -195.370250095     A.U. after    9 cycles
 SCF Done:  E(RB3LYP) =  -195.370251594     A.U. after    8 cycles
 SCF Done:  E(RB3LYP) =  -195.370251941     A.U. after    6 cycles
 Optimization completed.
    -- Stationary point found.
 Normal termination of Gaussian 16 at Fri Jun 10 11:37:09 2022.

 --------------------------------------------------------------------
 #N Geom=AllCheck Guess=TCheck SCRF=Check GenChk RB3LYP/def2TZVP Freq
 --------------------------------------------------------------------

 Structure from the checkpoint file:  "checkpoint.chk"
 ------------------
 int_zmat_initalOpt
 ------------------
 Charge =  0 Multiplicity = 1

                          Input orientation:
 ---------------------------------------------------------------------
 Center     Atomic      Atomic             Coordinates (Angstroms)
 Number     Number       Type             X           Y           Z
 ---------------------------------------------------------------------
      1          6           0        0.000000    0.000000    0.000000
      2          6           0        0.000000    0.000000    1.479163
      3          6           0        1.311818    0.000000   -0.767097
      4          6           0        0.403273   -1.192917   -0.818220
      5          1           0       -0.767788    0.630575   -0.433717
      6          1           0        2.218867   -0.083075   -0.182345
      7          1           0        1.388430    0.633137   -1.640443
      8          1           0        0.718191   -2.088955   -0.300502
      9          1           0       -0.144953   -1.379373   -1.731292
     10          6           0        0.194928   -1.039289    2.287079
     11          1           0       -0.174275    0.974967    1.929529
     12          1           0        0.343837   -2.043701    1.909170
     13          1           0        0.189865   -0.917433    3.363672
 ---------------------------------------------------------------------

 SCF Done:  E(RB3LYP) =  -195.370251941     A.U. after    1 cycles

 Isotropic polarizability for W=    0.000000       58.50 Bohr**3.
 End of Minotr F.D. properties file   721 does not exist.

                      1                      2                      3
                      A                      A                      A
 Frequencies --     78.0211               270.6221               301.4646
 Red. masses --      1.9870                 2.6652                 1.8211
 Frc consts  --      0.0071                 0.1150                 0.0975
 IR Inten    --      0.5876                 0.6233                 0.9572

                      4                      5                      6
                      A                      A                      A
 Frequencies --    536.7570               667.3202               760.7145
 Red. masses --      2.0813                 1.6012                 1.7291
 Frc consts  --      0.3533                 0.4201                 0.5895
 IR Inten    --      0.6619                13.6075                 2.1788

                      7                      8                      9
                      A                      A                      A
 Frequencies --    812.8578               838.8974               901.4436
 Red. masses --      1.2845                 1.5218                 1.6254
 Frc consts  --      0.5000                 0.6310                 0.7782
 IR Inten    --      0.3257                 8.2357                35.1856

                     10                     11                     12
                      A                      A                      A
 Frequencies --    914.3620               946.2832              1027.6725
 Red. masses --      1.8346                 2.5038                 1.1179
 Frc consts  --      0.9037                 1.3210                 0.6956
 IR Inten    --     14.2208                16.5410                17.2415

                     13                     14                     15
                      A                      A                      A
 Frequencies --   1053.8474              1084.2985              1094.1630
 Red. masses --      1.1963                 1.3090                 1.5779
 Frc consts  --      0.7828                 0.9067                 1.1130
 IR Inten    --      6.3914                 4.8115                 9.2433

                     16                     17                     18
                      A                      A                      A
 Frequencies --   1122.5306              1137.1609              1202.5133
 Red. masses --      1.5016                 1.1943                 1.3859
 Frc consts  --      1.1148                 0.9099                 1.1807
 IR Inten    --      2.2380                 0.9078                 2.8778

                     19                     20                     21
                      A                      A                      A
 Frequencies --   1229.1419              1335.9004              1409.5164
 Red. masses --      1.9076                 1.2633                 1.4814
 Frc consts  --      1.6980                 1.3283                 1.7340
 IR Inten    --      2.5057                 0.7780                 0.0971

                     22                     23                     24
                      A                      A                      A
 Frequencies --   1454.9990              1474.1693              1508.8128
 Red. masses --      1.3014                 1.0973                 1.3234
 Frc consts  --      1.6233                 1.4050                 1.7751
 IR Inten    --      3.6657                 3.9961                 3.9127

                     25                     26                     27
                      A                      A                      A
 Frequencies --   1694.1074              3114.1252              3129.2857
 Red. masses --      4.4246                 1.0807                 1.0526
 Frc consts  --      7.4818                 6.1750                 6.0730
 IR Inten    --     40.0813                18.1215                18.1048

                     28                     29                     30
                      A                      A                      A
 Frequencies --   3132.0675              3139.6068              3147.3388
 Red. masses --      1.0645                 1.0562                 1.0885
 Frc consts  --      6.1527                 6.1340                 6.3526
 IR Inten    --     13.1839                13.6654                 2.9602

                     31                     32                     33
                      A                      A                      A
 Frequencies --   3206.1503              3209.9214              3224.1546
 Red. masses --      1.1153                 1.1184                 1.1160
 Frc consts  --      6.7547                 6.7894                 6.8350
 IR Inten    --     23.8244                 4.8077                 9.9878

 - Thermochemistry -
 -------------------
 Temperature   298.150 Kelvin.  Pressure   1.00000 Atm.
 Atom     1 has atomic number  6 and mass  12.00000

 Molecular mass:    68.06260 amu.
 Principal axes and moments of inertia in atomic units:
                           1         2         3
     Eigenvalues --   156.31415 492.38943 539.13619
           X           -0.22551   0.00034   0.97424
           Y           -0.07636   0.99692  -0.01803
           Z            0.97124   0.07846   0.22479
 This molecule is an asymmetric top.
 Rotational symmetry number  1.
 Rotational temperatures (Kelvin)      0.55410     0.17591     0.16065
 Rotational constants (GHZ):          11.54560     3.66527     3.34747
 Zero-point vibrational energy     300024.8 (Joules/Mol)
                                   71.70764 (Kcal/Mol)
 Warning -- explicit consideration of   4 degrees of freedom as
           vibrations may cause significant error
 Vibrational temperatures:    112.25   389.36   433.74   772.27   960.12
          (Kelvin)           1094.50  1169.52  1206.99  1296.98  1315.56
                             1361.49  1478.59  1516.25  1560.06  1574.26
                             1615.07  1636.12  1730.15  1768.46  1922.06
                             2027.98  2093.42  2121.00  2170.85  2437.44
                             4480.53  4502.34  4506.35  4517.19  4528.32
                             4612.94  4618.36  4638.84

 Zero-point correction=                           0.114273 (Hartree/Particle)
 Thermal correction to Energy=                    0.119694
 Thermal correction to Enthalpy=                  0.120638
 Thermal correction to Gibbs Free Energy=         0.085845
 Sum of electronic and zero-point Energies=           -195.255979
 Sum of electronic and thermal Energies=              -195.250558
 Sum of electronic and thermal Enthalpies=            -195.249614
 Sum of electronic and thermal Free Energies=         -195.284407

                     E (Thermal)             CV                S
                      KCal/Mol        Cal/Mol-Kelvin    Cal/Mol-Kelvin
 Total                   75.109             19.404             73.229
 Electronic               0.000              0.000              0.000
 Translational            0.889              2.981             38.571
 Rotational               0.889              2.981             25.232
 Vibrational             73.332             13.442              9.426
 Vibration     1          0.599              1.964              3.940
 Vibration     2          0.674              1.727              1.592
 Vibration     3          0.693              1.671              1.409
 Vibration     4          0.892              1.169              0.572

 Optimization completed.
    -- Stationary point found.
 Normal termination of Gaussian 16 at Fri Jun 10 11:39:28 2022.
