 Gaussian 16, Revision A.03,
 Gaussian 16:  ES64L-G16RevA.03 25-Dec-2016

 --------------------------
 # sp B3LYP/Def2TZVP NoSymm
 --------------------------

 ---------------------------
 ts_initalOpt_zmat_AlignedSp
 ---------------------------
 Symbolic Z-matrix:
 Charge =  0 Multiplicity = 1

                          Input orientation:
 ---------------------------------------------------------------------
 Center     Atomic      Atomic             Coordinates (Angstroms)
 Number     Number       Type             X           Y           Z
 ---------------------------------------------------------------------
      1          6           0        0.000000    0.000000    0.000000
      2          6           0        0.000000    0.000000    1.388977
      3          6           0        1.255846    0.000000   -0.830229
      4          1           0       -0.951057    0.028995   -0.525627
      5          6           0        2.042387   -1.086568   -0.255459
      6          1           0        1.764069    0.967422   -0.811831
      7          1           0        0.974738   -0.209278   -1.868637
      8          6           0        0.930192   -0.551706    2.229917
      9          1           0       -0.832348    0.540505    1.846838
     10          1           0        2.964218   -0.922028    0.280055
     11          1           0        1.681867   -2.100901   -0.348029
     12          1           0        1.442731   -1.461690    1.967060
     13          1           0        1.055625   -0.190055    3.244321
 ---------------------------------------------------------------------

 SCF Done:  E(RB3LYP) =  -195.276145034     A.U. after   16 cycles

 Alpha  occ. eigenvalues --  -10.18740 -10.18600 -10.18469 -10.17559 -10.16489
 Alpha  occ. eigenvalues --   -0.82368  -0.75245  -0.67093  -0.60108  -0.53463
 Alpha  occ. eigenvalues --   -0.48759  -0.46778  -0.42583  -0.41454  -0.39516
 Alpha  occ. eigenvalues --   -0.36521  -0.35512  -0.27342  -0.18397
 Alpha virt. eigenvalues --   -0.08327   0.01288   0.04902   0.06718   0.07387
 Alpha virt. eigenvalues --    0.08207   0.10560   0.11562   0.13789   0.14193
 Alpha virt. eigenvalues --    0.17698   0.19088   0.19569   0.20430   0.22977

 Mulliken charges:
               1
     1  C   -0.171224
     2  C   -0.044774
     3  C   -0.070745
     4  H    0.103281
     5  C   -0.344053
     6  H    0.098590
     7  H    0.106792
     8  C   -0.312266
     9  H    0.105540
    10  H    0.143014
    11  H    0.140340
    12  H    0.138317
    13  H    0.107188
 Sum of Mulliken charges =  -0.00000

 Dipole moment (field-independent basis, Debye):
    X=             -0.0878    Y=              0.1314    Z=             -0.5900  Tot=              0.6108
 Quadrupole moment (field-independent basis, Debye-Ang):
   XX=            -32.3817   YY=            -33.0756   ZZ=            -32.2657
   XY=             -0.8190   XZ=              0.4883   YZ=              0.4857

 Normal termination of Gaussian 16 at Fri Jun 10 11:00:27 2022.
