 Gaussian 16, Revision A.03,
 Gaussian 16:  ES64L-G16RevA.03 25-Dec-2016

 ----------------------------------------------------------------------
 # Opt=(TS, CalcFC, noeigentest, Z-matrix, MaxStep=10) geom=allcheckpoi
 nt guess=read Field=read NoSymm B3LYP/Def2TZVP freq=noraman pop=none
 ----------------------------------------------------------------------

 Structure from the checkpoint file:  "checkpoint.chk"
 -----------------
 ts_zmat_initalOpt
 -----------------
 Charge =  0 Multiplicity = 1

 SCF Done:  E(RB3LYP) =  -195.278251029     A.U. after   10 cycles
 SCF Done:  E(RB3LYP) =  -195.278258192     A.U. after    9 cycles
 Optimization completed.
    -- Stationary point found.
 Normal termination of Gaussian 16 at Fri Jun 10 11:20:53 2022.

 --------------------------------------------------------------------
 #N Geom=AllCheck Guess=TCheck SCRF=Check GenChk RB3LYP/def2TZVP Freq
 --------------------------------------------------------------------

 Structure from the checkpoint file:  "checkpoint.chk"
 -----------------
 ts_zmat_initalOpt
 -----------------
 Charge =  0 Multiplicity = 1

                          Input orientation:
 ---------------------------------------------------------------------
 Center     Atomic      Atomic             Coordinates (Angstroms)
 Number     Number       Type             X           Y           Z
 ---------------------------------------------------------------------
      1          6           0        0.000000    0.000000    0.000000
      2          6           0        0.000000    0.000000    1.387441
      3          6           0        1.253760    0.000000   -0.835482
      4          1           0       -0.950308    0.026091   -0.525444
      5          6           0        2.043951   -1.078847   -0.257285
      6          1           0        1.754906    0.970823   -0.830700
      7          1           0        0.965666   -0.219503   -1.869284
      8          6           0        0.933782   -0.542748    2.233957
      9          1           0       -0.839470    0.533657    1.840381
     10          1           0        2.971602   -0.909132    0.267148
     11          1           0        1.688855   -2.095215   -0.347958
     12          1           0        1.451039   -1.452344    1.979802
     13          1           0        1.046375   -0.177262    3.249600
 ---------------------------------------------------------------------

 SCF Done:  E(RB3LYP) =  -195.278258192     A.U. after    1 cycles

 Isotropic polarizability for W=    0.000000       74.70 Bohr**3.
 End of Minotr F.D. properties file   721 does not exist.

 ******    1 imaginary frequencies (negative Signs) ******

                      1                      2                      3
                      A                      A                      A
 Frequencies --   -421.1190               219.8623               260.3019
 Red. masses --      1.9550                 2.2210                 2.2870
 Frc consts  --      0.2043                 0.0633                 0.0913
 IR Inten    --      0.1393                 0.4361                 1.1034

                      4                      5                      6
                      A                      A                      A
 Frequencies --    372.1510               544.9080               585.6842
 Red. masses --      2.2547                 1.2780                 1.3140
 Frc consts  --      0.1840                 0.2236                 0.2656
 IR Inten    --      6.7624                 7.7045                 3.6345

                      7                      8                      9
                      A                      A                      A
 Frequencies --    649.2824               703.1374               754.0620
 Red. masses --      1.4597                 1.3775                 1.2416
 Frc consts  --      0.3626                 0.4013                 0.4160
 IR Inten    --     18.4180                39.2233                58.3372

                     10                     11                     12
                      A                      A                      A
 Frequencies --    772.7291               830.9544               896.5757
 Red. masses --      1.3923                 1.5237                 1.4806
 Frc consts  --      0.4898                 0.6199                 0.7012
 IR Inten    --      9.3801                 9.4244                 4.4230

                     13                     14                     15
                      A                      A                      A
 Frequencies --    930.8096              1030.7618              1062.9748
 Red. masses --      1.8469                 1.5592                 1.6702
 Frc consts  --      0.9428                 0.9761                 1.1119
 IR Inten    --      3.3049                 0.1347                14.7866

                     16                     17                     18
                      A                      A                      A
 Frequencies --   1130.8244              1154.5898              1221.0603
 Red. masses --      2.1998                 1.9540                 1.2374
 Frc consts  --      1.6574                 1.5347                 1.0870
 IR Inten    --     17.9361                 0.1193                 5.9653

                     19                     20                     21
                      A                      A                      A
 Frequencies --   1266.5511              1306.1578              1400.4051
 Red. masses --      1.2592                 1.3030                 1.3514
 Frc consts  --      1.1901                 1.3097                 1.5615
 IR Inten    --     18.4708                 6.2797                 2.6786

                     22                     23                     24
                      A                      A                      A
 Frequencies --   1423.4976              1481.5747              1497.3868
 Red. masses --      1.1105                 1.2612                 1.4542
 Frc consts  --      1.3258                 1.6311                 1.9210
 IR Inten    --     12.1885                 6.9097                 1.9860

                     25                     26                     27
                      A                      A                      A
 Frequencies --   1590.3961              3015.1108              3059.0581
 Red. masses --      4.0788                 1.0580                 1.0901
 Frc consts  --      6.0784                 5.6670                 6.0104
 IR Inten    --     21.2085                13.2785                14.7406

                     28                     29                     30
                      A                      A                      A
 Frequencies --   3061.2985              3131.0840              3142.6139
 Red. masses --      1.0945                 1.0651                 1.0882
 Frc consts  --      6.0433                 6.1521                 6.3322
 IR Inten    --     14.8809                22.1074                 6.7924

                     31                     32                     33
                      A                      A                      A
 Frequencies --   3164.8201              3255.2037              3267.3252
 Red. masses --      1.0514                 1.1034                 1.1186
 Frc consts  --      6.2043                 6.8886                 7.0359
 IR Inten    --      4.6777                10.6421                 3.3051

 - Thermochemistry -
 -------------------
 Temperature   298.150 Kelvin.  Pressure   1.00000 Atm.
 Atom     1 has atomic number  6 and mass  12.00000

 Molecular mass:    68.06260 amu.
 Principal axes and moments of inertia in atomic units:
                           1         2         3
     Eigenvalues --   212.06914 402.93086 566.24817
           X           -0.36823   0.79392   0.48384
           Y            0.06252  -0.49809   0.86487
           Z            0.92763   0.34872   0.13377
 This molecule is an asymmetric top.
 Rotational symmetry number  1.
 Rotational temperatures (Kelvin)      0.40842     0.21496     0.15296
 Rotational constants (GHZ):           8.51015     4.47903     3.18719
    1 imaginary frequencies ignored.
 Zero-point vibrational energy     288199.3 (Joules/Mol)
                                   68.88127 (Kcal/Mol)
 Warning -- explicit consideration of   5 degrees of freedom as
           vibrations may cause significant error
 Vibrational temperatures:    316.33   374.52   535.44   784.00   842.67
          (Kelvin)            934.17  1011.66  1084.93  1111.78  1195.56
                             1289.97  1339.23  1483.04  1529.38  1627.00
                             1661.20  1756.83  1822.28  1879.27  2014.87
                             2048.10  2131.66  2154.41  2288.23  4338.07
                             4401.30  4404.53  4504.93  4521.52  4553.47
                             4683.51  4700.95

 Zero-point correction=                           0.109769 (Hartree/Particle)
 Thermal correction to Energy=                    0.115072
 Thermal correction to Enthalpy=                  0.116016
 Thermal correction to Gibbs Free Energy=         0.081948
 Sum of electronic and zero-point Energies=           -195.168489
 Sum of electronic and thermal Energies=              -195.163187
 Sum of electronic and thermal Enthalpies=            -195.162242
 Sum of electronic and thermal Free Energies=         -195.196310

                     E (Thermal)             CV                S
                      KCal/Mol        Cal/Mol-Kelvin    Cal/Mol-Kelvin
 Total                   72.209             20.069             71.701
 Electronic               0.000              0.000              0.000
 Translational            0.889              2.981             38.571
 Rotational               0.889              2.981             25.384
 Vibrational             70.431             14.108              7.745
 Vibration     1          0.647              1.811              1.960
 Vibration     2          0.668              1.745              1.660
 Vibration     3          0.744              1.529              1.071
 Vibration     4          0.900              1.151              0.555
 Vibration     5          0.943              1.062              0.475

 Optimization completed.
    -- Stationary point found.
 Normal termination of Gaussian 16 at Fri Jun 10 11:23:22 2022.
