 Gaussian 16, Revision A.03,
 Gaussian 16:  ES64L-G16RevA.03 25-Dec-2016

 --------------------------
 # sp B3LYP/Def2TZVP NoSymm
 --------------------------

 ---------------------------
 ts_initalOpt_zmat_AlignedSp
 ---------------------------
 Symbolic Z-matrix:
 Charge =  0 Multiplicity = 1

                          Input orientation:
 ---------------------------------------------------------------------
 Center     Atomic      Atomic             Coordinates (Angstroms)
 Number     Number       Type             X           Y           Z
 ---------------------------------------------------------------------
      1          1           0        0.000000    0.000000    0.000000
      2          6           0        0.000000    0.000000    1.078517
      3          6           0        1.106788    0.000000    1.922111
      4          6           0       -1.132338    0.005949    1.902602
      5          1           0        2.143056   -0.018315    1.619800
      6          1           0       -1.214952   -0.982420    2.727715
      7          6           0        0.635158   -0.013382    3.235382
      8          7           0       -0.712221    0.043324    3.294322
      9          1           0       -2.154862    0.257946    1.666415
     10          1           0        1.208712   -0.094603    4.146566
 ---------------------------------------------------------------------

 SCF Done:  E(RB3LYP) =  -210.175708944     A.U. after   14 cycles

 Alpha  occ. eigenvalues --  -14.34125 -10.21670 -10.19481 -10.18050 -10.17778
 Alpha  occ. eigenvalues --   -0.97753  -0.77581  -0.73519  -0.58564  -0.56295
 Alpha  occ. eigenvalues --   -0.52621  -0.47542  -0.40877  -0.40248  -0.39979
 Alpha  occ. eigenvalues --   -0.30272  -0.28330  -0.25349
 Alpha virt. eigenvalues --   -0.01105   0.01723   0.05429   0.07031   0.08687
 Alpha virt. eigenvalues --    0.09004   0.09941   0.13859   0.15856   0.17736
 Alpha virt. eigenvalues --    0.19506   0.21428   0.22598   0.23806   0.24482

 Mulliken charges:
               1
     1  H    0.120825
     2  C   -0.176369
     3  C   -0.089239
     4  C   -0.071861
     5  H    0.114929
     6  H    0.226902
     7  C   -0.107717
     8  N   -0.284257
     9  H    0.150845
    10  H    0.115943
 Sum of Mulliken charges =  -0.00000

 Dipole moment (field-independent basis, Debye):
    X=              0.2740    Y=             -0.6724    Z=             -1.2844  Tot=              1.4754
 Quadrupole moment (field-independent basis, Debye-Ang):
   XX=            -27.1129   YY=            -31.9034   ZZ=            -36.2012
   XY=              0.5082   XZ=              3.0478   YZ=             -2.5436

 Normal termination of Gaussian 16 at Fri Jun 10 22:23:17 2022.
