 Gaussian 16, Revision A.03,
 Gaussian 16:  ES64L-G16RevA.03 25-Dec-2016

 ----------------------------------------------------------------------
 # Opt=(Z-matrix, MaxStep=10) B3LYP/Def2TZVP Field=read NoSymm freq=nor
 aman pop=none
 ----------------------------------------------------------------------

 ------------------
 int_zmat_initalOpt
 ------------------
 Symbolic Z-matrix:
 Charge =  0 Multiplicity = 1

 SCF Done:  E(RB3LYP) =  -573.629979233     A.U. after   14 cycles
 SCF Done:  E(RB3LYP) =  -573.630050234     A.U. after   10 cycles
 SCF Done:  E(RB3LYP) =  -573.630077687     A.U. after   11 cycles
 SCF Done:  E(RB3LYP) =  -573.630089082     A.U. after    9 cycles
 SCF Done:  E(RB3LYP) =  -573.630091630     A.U. after    8 cycles
 SCF Done:  E(RB3LYP) =  -573.629911303     A.U. after   11 cycles
 SCF Done:  E(RB3LYP) =  -573.630094587     A.U. after    8 cycles
 SCF Done:  E(RB3LYP) =  -573.630095912     A.U. after    7 cycles
 SCF Done:  E(RB3LYP) =  -573.629952153     A.U. after   12 cycles
 SCF Done:  E(RB3LYP) =  -573.630097953     A.U. after    9 cycles
 SCF Done:  E(RB3LYP) =  -573.630101760     A.U. after    8 cycles
 SCF Done:  E(RB3LYP) =  -573.630102014     A.U. after    8 cycles
 SCF Done:  E(RB3LYP) =  -573.630102195     A.U. after    7 cycles
 SCF Done:  E(RB3LYP) =  -573.630102502     A.U. after    7 cycles
 SCF Done:  E(RB3LYP) =  -573.630102831     A.U. after    8 cycles
 SCF Done:  E(RB3LYP) =  -573.630102996     A.U. after    7 cycles
 SCF Done:  E(RB3LYP) =  -573.630103177     A.U. after    8 cycles
 SCF Done:  E(RB3LYP) =  -573.630103270     A.U. after    7 cycles
 SCF Done:  E(RB3LYP) =  -573.630103349     A.U. after    7 cycles
 Optimization completed.
    -- Stationary point found.
 Normal termination of Gaussian 16 at Sun Jun 12 02:12:36 2022.

 --------------------------------------------------------------------
 #N Geom=AllCheck Guess=TCheck SCRF=Check GenChk RB3LYP/def2TZVP Freq
 --------------------------------------------------------------------

 Structure from the checkpoint file:  "checkpoint.chk"
 ------------------
 int_zmat_initalOpt
 ------------------
 Charge =  0 Multiplicity = 1

                          Input orientation:
 ---------------------------------------------------------------------
 Center     Atomic      Atomic             Coordinates (Angstroms)
 Number     Number       Type             X           Y           Z
 ---------------------------------------------------------------------
      1          6           0        0.000000    0.000000    0.000000
      2          6           0        0.000000    0.000000    1.485192
      3          6           0        1.263779    0.000000   -0.414935
      4          1           0       -0.913356    0.014518   -0.572477
      5          8           0       -0.915033   -0.013859    2.249026
      6          6           0        2.146236   -0.029284    0.779667
      7          1           0        1.662018    0.004925   -1.416948
      8          8           0        1.321248   -0.011993    1.904708
      9          8           0        3.330702   -0.088158    0.860065
     10          6           0       -0.412210    3.689638   -0.082553
     11          6           0        0.241749    3.533058    1.083441
     12          6           0        0.585930    3.747200   -1.201829
     13          1           0       -1.478967    3.793500   -0.215917
     14          6           0        1.680178    3.459131    0.825019
     15          1           0       -0.208398    3.478429    2.064721
     16          1           0        0.408653    2.982754   -1.968226
     17          1           0        0.542925    4.708545   -1.729234
     18          6           0        1.899619    3.569365   -0.498204
     19          1           0        2.436376    3.344603    1.588692
     20          1           0        2.858080    3.568316   -0.995646
 ---------------------------------------------------------------------

 SCF Done:  E(RB3LYP) =  -573.630103349     A.U. after    1 cycles

 Isotropic polarizability for W=    0.000000      109.15 Bohr**3.
 End of Minotr F.D. properties file   721 does not exist.

                      1                      2                      3
                      A                      A                      A
 Frequencies --     11.6888                33.1975                36.9515
 Red. masses --      4.0743                 6.9173                 6.6102
 Frc consts  --      0.0003                 0.0045                 0.0053
 IR Inten    --      0.4317                 0.0371                 0.0164

                      4                      5                      6
                      A                      A                      A
 Frequencies --     44.7819                65.8367                67.5363
 Red. masses --      4.3764                 4.0727                 3.8697
 Frc consts  --      0.0052                 0.0104                 0.0104
 IR Inten    --     11.0582                 0.2802                 5.9983

                      7                      8                      9
                      A                      A                      A
 Frequencies --    171.3503               277.6323               351.7171
 Red. masses --     15.3045                 4.0640                 1.5044
 Frc consts  --      0.2648                 0.1846                 0.1096
 IR Inten    --      5.9326                 0.0364                 8.2639

                     10                     11                     12
                      A                      A                      A
 Frequencies --    404.2011               527.7869               564.1568
 Red. masses --     12.9215                 2.3780                 4.6921
 Frc consts  --      1.2438                 0.3903                 0.8799
 IR Inten    --      8.6363                 0.1101                 3.3271

                     13                     14                     15
                      A                      A                      A
 Frequencies --    637.3425               645.3898               688.7251
 Red. masses --      8.5291                 2.4122                 1.1879
 Frc consts  --      2.0413                 0.5920                 0.3320
 IR Inten    --      0.6867                 4.0732                84.5861

                     16                     17                     18
                      A                      A                      A
 Frequencies --    702.6145               724.5182               784.1381
 Red. masses --      8.7620                 1.2662                 6.8796
 Frc consts  --      2.5485                 0.3916                 2.4923
 IR Inten    --     42.8651                 1.0342                 0.1487

                     19                     20                     21
                      A                      A                      A
 Frequencies --    819.2118               820.9919               857.3514
 Red. masses --      5.0784                 5.5854                 2.0074
 Frc consts  --      2.0080                 2.2181                 0.8694
 IR Inten    --      1.4485                 3.1812                74.1638

                     22                     23                     24
                      A                      A                      A
 Frequencies --    874.9269               899.7166               919.6298
 Red. masses --      9.3607                10.2294                 1.8487
 Frc consts  --      4.2219                 4.8788                 0.9212
 IR Inten    --      9.1131               120.6968                41.0862

                     25                     26                     27
                      A                      A                      A
 Frequencies --    926.7936               963.8471               968.4418
 Red. masses --      2.1235                 1.3564                 1.4137
 Frc consts  --      1.0747                 0.7425                 0.7812
 IR Inten    --     10.0959                 1.8173                 4.8705

                     28                     29                     30
                      A                      A                      A
 Frequencies --    971.9391               983.8748              1016.7071
 Red. masses --      1.4881                 1.3383                 2.5873
 Frc consts  --      0.8282                 0.7633                 1.5757
 IR Inten    --      6.2203                 0.3264                 0.7075

                     31                     32                     33
                      A                      A                      A
 Frequencies --   1057.8888              1080.3417              1116.1804
 Red. masses --      3.1220                 1.1748                 1.1278
 Frc consts  --      2.0585                 0.8079                 0.8278
 IR Inten    --     37.6902                16.6634                 1.2542

                     34                     35                     36
                      A                      A                      A
 Frequencies --   1125.1696              1134.6832              1262.2913
 Red. masses --      1.1408                 1.2539                 6.7860
 Frc consts  --      0.8509                 0.9512                 6.3707
 IR Inten    --      0.5613                 1.4238               127.5441

                     37                     38                     39
                      A                      A                      A
 Frequencies --   1270.4764              1323.5045              1336.5647
 Red. masses --      1.7477                 1.5942                 1.7548
 Frc consts  --      1.6621                 1.6453                 1.8469
 IR Inten    --      2.8729                 1.2249                 2.1127

                     40                     41                     42
                      A                      A                      A
 Frequencies --   1401.4238              1414.6171              1541.9679
 Red. masses --      1.4242                 1.4091                 5.4462
 Frc consts  --      1.6480                 1.6614                 7.6295
 IR Inten    --     33.2273                 3.3179                13.0113

                     43                     44                     45
                      A                      A                      A
 Frequencies --   1630.7941              1646.2596              1833.6953
 Red. masses --      5.0898                 6.5556                12.8004
 Frc consts  --      7.9753                10.4680                25.3588
 IR Inten    --      1.1158                 7.5011               600.2191

                     46                     47                     48
                      A                      A                      A
 Frequencies --   1898.6398              3014.6104              3032.9063
 Red. masses --     12.6055                 1.0608                 1.0975
 Frc consts  --     26.7730                 5.6799                 5.9482
 IR Inten    --     84.3570                 8.2201                 6.0180

                     49                     50                     51
                      A                      A                      A
 Frequencies --   3198.8812              3208.4190              3223.1626
 Red. masses --      1.0867                 1.0888                 1.0997
 Frc consts  --      6.5520                 6.6034                 6.7313
 IR Inten    --      1.2482                 3.7416                 7.7100

                     52                     53                     54
                      A                      A                      A
 Frequencies --   3230.6388              3241.2972              3260.8666
 Red. masses --      1.1052                 1.0895                 1.1084
 Frc consts  --      6.7962                 6.7440                 6.9442
 IR Inten    --      0.7139                 0.3285                 1.0129

 - Thermochemistry -
 -------------------
 Temperature   298.150 Kelvin.  Pressure   1.00000 Atm.
 Atom     1 has atomic number  6 and mass  12.00000

 Molecular mass:   164.04734 amu.
 Principal axes and moments of inertia in atomic units:
                           1         2         3
     Eigenvalues --  1346.662452482.344733021.33502
           X           -0.08612   0.95164   0.29490
           Y            0.93279  -0.02697   0.35942
           Z           -0.34999  -0.30603   0.88535
 This molecule is an asymmetric top.
 Rotational symmetry number  1.
 Warning -- assumption of classical behavior for rotation
           may cause significant error
 Rotational temperatures (Kelvin)      0.06432     0.03489     0.02867
 Rotational constants (GHZ):           1.34016     0.72703     0.59733
 Zero-point vibrational energy     390271.4 (Joules/Mol)
                                   93.27710 (Kcal/Mol)
 Warning -- explicit consideration of  12 degrees of freedom as
           vibrations may cause significant error
 Vibrational temperatures:     16.82    47.76    53.16    64.43    94.72
          (Kelvin)             97.17   246.53   399.45   506.04   581.56
                              759.37   811.70   916.99   928.57   990.92
                             1010.91  1042.42  1128.20  1178.66  1181.22
                             1233.54  1258.82  1294.49  1323.14  1333.45
                             1386.76  1393.37  1398.40  1415.58  1462.81
                             1522.07  1554.37  1605.93  1618.87  1632.56
                             1816.16  1827.93  1904.23  1923.02  2016.34
                             2035.32  2218.55  2346.35  2368.60  2638.28
                             2731.72  4337.35  4363.68  4602.48  4616.20
                             4637.41  4648.17  4663.50  4691.66

 Zero-point correction=                           0.148647 (Hartree/Particle)
 Thermal correction to Energy=                    0.160190
 Thermal correction to Enthalpy=                  0.161135
 Thermal correction to Gibbs Free Energy=         0.106341
 Sum of electronic and zero-point Energies=           -573.481457
 Sum of electronic and thermal Energies=              -573.469913
 Sum of electronic and thermal Enthalpies=            -573.468969
 Sum of electronic and thermal Free Energies=         -573.523763

                     E (Thermal)             CV                S
                      KCal/Mol        Cal/Mol-Kelvin    Cal/Mol-Kelvin
 Total                  100.521             39.942            115.323
 Electronic               0.000              0.000              0.000
 Translational            0.889              2.981             41.193
 Rotational               0.889              2.981             30.691
 Vibrational             98.744             33.981             43.438
 Vibration     1          0.593              1.987              7.701
 Vibration     2          0.594              1.983              5.629
 Vibration     3          0.594              1.982              5.416
 Vibration     4          0.595              1.979              5.035
 Vibration     5          0.597              1.971              4.274
 Vibration     6          0.598              1.970              4.224
 Vibration     7          0.626              1.878              2.421
 Vibration     8          0.679              1.715              1.548
 Vibration     9          0.728              1.572              1.158
 Vibration    10          0.769              1.461              0.947
 Vibration    11          0.883              1.189              0.592
 Vibration    12          0.920              1.109              0.516

                       ! Non-Optimized Parameters !
 Normal termination of Gaussian 16 at Sun Jun 12 02:30:16 2022.
