 Gaussian 16, Revision A.03,
 Gaussian 16:  ES64L-G16RevA.03 25-Dec-2016

 --------------------------
 # sp B3LYP/Def2TZVP NoSymm
 --------------------------

 ---------------------------
 ts_initalOpt_zmat_AlignedSp
 ---------------------------
 Symbolic Z-matrix:
 Charge =  0 Multiplicity = 1

                          Input orientation:
 ---------------------------------------------------------------------
 Center     Atomic      Atomic             Coordinates (Angstroms)
 Number     Number       Type             X           Y           Z
 ---------------------------------------------------------------------
      1          6           0        0.000000    0.000000    0.000000
      2          1           0        0.000000    0.000000    1.087252
      3          1           0        1.045715    0.000000   -0.336859
      4          6           0       -0.707719   -1.151031   -0.666376
      5          6           0       -0.707719    1.151031   -0.666376
      6          6           0       -1.110412    0.695841   -1.929916
      7          6           0       -1.110412   -0.695841   -1.929916
      8          1           0       -0.518568    2.188392   -0.430249
      9          1           0       -0.518568   -2.188392   -0.430249
     10          1           0       -1.484954    1.322348   -2.726136
     11          1           0       -1.484954   -1.322348   -2.726136
     12          6           0       -2.483178   -0.699459    0.527377
     13          6           0       -3.581751   -1.140209   -0.353950
     14          6           0       -2.483178    0.699459    0.527377
     15          1           0       -2.170315   -1.337815    1.337879
     16          8           0       -4.125795    0.000000   -0.949942
     17          8           0       -4.003541   -2.230963   -0.590182
     18          6           0       -3.581751    1.140209   -0.353950
     19          1           0       -2.170315    1.337815    1.337879
     20          8           0       -4.003541    2.230963   -0.590182
 ---------------------------------------------------------------------

 SCF Done:  E(RB3LYP) =  -573.600468168     A.U. after   15 cycles

 Alpha  occ. eigenvalues --  -19.18801 -19.12928 -19.12928 -10.31502 -10.31500
 Alpha  occ. eigenvalues --  -10.22617 -10.22616 -10.21748 -10.21694 -10.21152
 Alpha  occ. eigenvalues --  -10.20393 -10.20336  -1.13362  -1.07165  -1.03214
 Alpha  occ. eigenvalues --   -0.90914  -0.82686  -0.74750  -0.74476  -0.69163
 Alpha  occ. eigenvalues --   -0.62737  -0.59650  -0.58484  -0.56377  -0.55445
 Alpha  occ. eigenvalues --   -0.51203  -0.49817  -0.47073  -0.46890  -0.45160
 Alpha  occ. eigenvalues --   -0.44035  -0.42289  -0.41533  -0.41375  -0.41202
 Alpha  occ. eigenvalues --   -0.40180  -0.39361  -0.35529  -0.33232  -0.31152
 Alpha  occ. eigenvalues --   -0.28956  -0.27953  -0.27348
 Alpha virt. eigenvalues --   -0.07684  -0.06095  -0.00773   0.01750   0.03875
 Alpha virt. eigenvalues --    0.05268   0.05514   0.06178   0.07667   0.07736
 Alpha virt. eigenvalues --    0.08705   0.08963   0.11531   0.13033   0.13083

 Mulliken charges:
               1
     1  C   -0.118957
     2  H    0.116229
     3  H    0.125644
     4  C   -0.098888
     5  C   -0.098888
     6  C   -0.141751
     7  C   -0.141751
     8  H    0.140650
     9  H    0.140650
    10  H    0.142367
    11  H    0.142367
    12  C   -0.161591
    13  C    0.271467
    14  C   -0.161591
    15  H    0.146063
    16  O   -0.209372
    17  O   -0.255090
    18  C    0.271467
    19  H    0.146063
    20  O   -0.255090
 Sum of Mulliken charges =  -0.00000

 Dipole moment (field-independent basis, Debye):
    X=              5.8797    Y=             -0.0000    Z=              1.6859  Tot=              6.1166
 Quadrupole moment (field-independent basis, Debye-Ang):
   XX=           -101.4886   YY=            -78.1167   ZZ=            -65.2276
   XY=              0.0000   XZ=             -7.7823   YZ=              0.0000

 Normal termination of Gaussian 16 at Sun Jun 12 01:15:59 2022.
