 Gaussian 16, Revision A.03,
 Gaussian 16:  ES64L-G16RevA.03 25-Dec-2016

 ----------------------------------------------------------------------
 # Opt=(TS, CalcFC, noeigentest, Z-matrix, MaxStep=10) geom=allcheckpoi
 nt guess=read Field=read NoSymm B3LYP/Def2TZVP freq=noraman pop=none
 ----------------------------------------------------------------------

 Structure from the checkpoint file:  "checkpoint.chk"
 -----------------
 ts_zmat_initalOpt
 -----------------
 Charge =  0 Multiplicity = 1

 SCF Done:  E(RB3LYP) =  -573.610389385     A.U. after   11 cycles
 SCF Done:  E(RB3LYP) =  -573.610495982     A.U. after   11 cycles
 SCF Done:  E(RB3LYP) =  -573.610496109     A.U. after    8 cycles
 Optimization completed.
    -- Stationary point found.
 Normal termination of Gaussian 16 at Sun Jun 12 02:59:47 2022.

 --------------------------------------------------------------------
 #N Geom=AllCheck Guess=TCheck SCRF=Check GenChk RB3LYP/def2TZVP Freq
 --------------------------------------------------------------------

 Structure from the checkpoint file:  "checkpoint.chk"
 -----------------
 ts_zmat_initalOpt
 -----------------
 Charge =  0 Multiplicity = 1

                          Input orientation:
 ---------------------------------------------------------------------
 Center     Atomic      Atomic             Coordinates (Angstroms)
 Number     Number       Type             X           Y           Z
 ---------------------------------------------------------------------
      1          6           0        0.000000    0.000000    0.000000
      2          1           0        0.000000    0.000000    1.086924
      3          1           0        1.042155    0.000000   -0.345102
      4          6           0       -0.719939   -1.150545   -0.654103
      5          6           0       -0.719939    1.150545   -0.654103
      6          6           0       -1.151555    0.695170   -1.909192
      7          6           0       -1.151555   -0.695170   -1.909192
      8          1           0       -0.520785    2.187709   -0.425130
      9          1           0       -0.520785   -2.187709   -0.425130
     10          1           0       -1.530044    1.323500   -2.702104
     11          1           0       -1.530044   -1.323500   -2.702104
     12          6           0       -2.487074   -0.685505    0.555315
     13          6           0       -3.634288   -1.045000   -0.294632
     14          6           0       -2.437569    0.715330    0.606976
     15          1           0       -2.179997   -1.364501    1.334374
     16          8           0       -4.163508    0.145347   -0.821424
     17          8           0       -4.123430   -2.104892   -0.550601
     18          6           0       -3.560928    1.231715   -0.192499
     19          1           0       -2.062837    1.306154    1.427201
     20          8           0       -3.974030    2.342666   -0.345096
 ---------------------------------------------------------------------

 SCF Done:  E(RB3LYP) =  -573.610496109     A.U. after    1 cycles

 Isotropic polarizability for W=    0.000000      111.10 Bohr**3.
 End of Minotr F.D. properties file   721 does not exist.

 ******    1 imaginary frequencies (negative Signs) ******

                      1                      2                      3
                      A                      A                      A
 Frequencies --   -453.1401                78.9606               118.9466
 Red. masses --      9.1558                 5.7574                 4.4560
 Frc consts  --      1.1077                 0.0211                 0.0371
 IR Inten    --      0.9046                 1.5559                 0.0018

                      4                      5                      6
                      A                      A                      A
 Frequencies --    126.3047               177.0912               180.7923
 Red. masses --      7.1680                13.3133                 7.3215
 Frc consts  --      0.0674                 0.2460                 0.1410
 IR Inten    --      5.6763                 1.9080                 1.7668

                      7                      8                      9
                      A                      A                      A
 Frequencies --    293.7831               399.5280               430.1841
 Red. masses --      3.8366                 8.7054                 5.8100
 Frc consts  --      0.1951                 0.8187                 0.6335
 IR Inten    --      2.4782                 5.5539                 2.3414

                     10                     11                     12
                      A                      A                      A
 Frequencies --    471.9682               566.1912               617.8809
 Red. masses --      2.1820                 2.8946                 5.0860
 Frc consts  --      0.2864                 0.5467                 1.1440
 IR Inten    --      1.8594                 0.6624                18.4693

                     13                     14                     15
                      A                      A                      A
 Frequencies --    623.9536               720.1858               747.7212
 Red. masses --     10.3197                 7.2714                 6.9078
 Frc consts  --      2.3671                 2.2221                 2.2755
 IR Inten    --      3.4447                31.7860                17.8737

                     16                     17                     18
                      A                      A                      A
 Frequencies --    768.0936               778.0117               799.8912
 Red. masses --      2.0984                 6.7633                 1.2518
 Frc consts  --      0.7294                 2.4120                 0.4719
 IR Inten    --      5.5512                 1.7177                22.1997

                     19                     20                     21
                      A                      A                      A
 Frequencies --    813.5328               849.0464               860.6372
 Red. masses --      2.8136                 1.5748                 1.7008
 Frc consts  --      1.0971                 0.6689                 0.7423
 IR Inten    --      3.1736                45.0049                32.6360

                     22                     23                     24
                      A                      A                      A
 Frequencies --    885.0956               898.2602               912.9678
 Red. masses --      5.1472                 4.6739                 1.8078
 Frc consts  --      2.3757                 2.2219                 0.8878
 IR Inten    --     78.5379                72.1880                 5.8480

                     25                     26                     27
                      A                      A                      A
 Frequencies --    935.3008               977.1686               978.5167
 Red. masses --      1.4375                 1.6723                 1.6925
 Frc consts  --      0.7409                 0.9408                 0.9548
 IR Inten    --      0.1837                 1.0297                 1.0848

                     28                     29                     30
                      A                      A                      A
 Frequencies --    992.0235              1000.5462              1068.5696
 Red. masses --      1.3528                 1.3471                 1.3608
 Frc consts  --      0.7844                 0.7946                 0.9155
 IR Inten    --      5.0391                11.0750                 1.5225

                     31                     32                     33
                      A                      A                      A
 Frequencies --   1078.9666              1091.6667              1106.2940
 Red. masses --      1.9658                 1.3261                 1.2106
 Frc consts  --      1.3484                 0.9311                 0.8730
 IR Inten    --     25.2631                 4.7105                 7.4059

                     34                     35                     36
                      A                      A                      A
 Frequencies --   1125.8619              1139.5672              1254.0927
 Red. masses --      2.1904                 1.1641                 8.0451
 Frc consts  --      1.6358                 0.8907                 7.4549
 IR Inten    --      3.9678                 0.2453               233.5256

                     37                     38                     39
                      A                      A                      A
 Frequencies --   1286.4517              1316.3618              1335.2703
 Red. masses --      1.7975                 1.5034                 1.7917
 Frc consts  --      1.7527                 1.5348                 1.8822
 IR Inten    --      4.4888                 0.8031                 0.0790

                     40                     41                     42
                      A                      A                      A
 Frequencies --   1369.8304              1430.2810              1467.1131
 Red. masses --      3.0966                 3.5994                 1.1326
 Frc consts  --      3.4235                 4.3383                 1.4363
 IR Inten    --     18.3150                 2.9206                17.8956

                     43                     44                     45
                      A                      A                      A
 Frequencies --   1490.2722              1492.4747              1816.1369
 Red. masses --      3.0824                 2.9747                12.6885
 Frc consts  --      4.0334                 3.9040                24.6581
 IR Inten    --     17.4713                 1.9256               700.5497

                     46                     47                     48
                      A                      A                      A
 Frequencies --   1877.4553              3018.5658              3125.1108
 Red. masses --     12.5625                 1.0705                 1.0918
 Frc consts  --     26.0895                 5.7468                 6.2825
 IR Inten    --    320.9082                 1.0970                12.9866

                     49                     50                     51
                      A                      A                      A
 Frequencies --   3204.5512              3212.4429              3220.1388
 Red. masses --      1.0886                 1.0920                 1.0950
 Frc consts  --      6.5863                 6.6398                 6.6897
 IR Inten    --      2.0270                 0.7439                 1.8868

                     52                     53                     54
                      A                      A                      A
 Frequencies --   3225.7196              3232.6875              3238.8269
 Red. masses --      1.0898                 1.1035                 1.0975
 Frc consts  --      6.6813                 6.7941                 6.7831
 IR Inten    --      1.2040                 0.5683                 0.7281

 - Thermochemistry -
 -------------------
 Temperature   298.150 Kelvin.  Pressure   1.00000 Atm.
 Atom     1 has atomic number  6 and mass  12.00000

 Molecular mass:   164.04734 amu.
 Principal axes and moments of inertia in atomic units:
                           1         2         3
     Eigenvalues --  1283.507961695.347712281.37510
           X            0.98988   0.07001   0.12344
           Y           -0.06379   0.99652  -0.05362
           Z           -0.12677   0.04520   0.99090
 This molecule is an asymmetric top.
 Rotational symmetry number  1.
 Warning -- assumption of classical behavior for rotation
           may cause significant error
 Rotational temperatures (Kelvin)      0.06748     0.05109     0.03797
 Rotational constants (GHZ):           1.40610     1.06453     0.79108
    1 imaginary frequencies ignored.
 Zero-point vibrational energy     396127.2 (Joules/Mol)
                                   94.67667 (Kcal/Mol)
 Warning -- explicit consideration of  11 degrees of freedom as
           vibrations may cause significant error
 Vibrational temperatures:    113.61   171.14   181.72   254.79   260.12
          (Kelvin)            422.69   574.83   618.94   679.06   814.62
                              888.99   897.73  1036.19  1075.80  1105.12
                             1119.39  1150.86  1170.49  1221.59  1238.27
                             1273.46  1292.40  1313.56  1345.69  1405.93
                             1407.87  1427.30  1439.56  1537.43  1552.39
                             1570.66  1591.71  1619.86  1639.58  1804.36
                             1850.92  1893.95  1921.16  1970.88  2057.86
                             2110.85  2144.17  2147.34  2613.02  2701.24
                             4343.04  4496.34  4610.63  4621.99  4633.06
                             4641.09  4651.12  4659.95

 Zero-point correction=                           0.150877 (Hartree/Particle)
 Thermal correction to Energy=                    0.160047
 Thermal correction to Enthalpy=                  0.160991
 Thermal correction to Gibbs Free Energy=         0.116101
 Sum of electronic and zero-point Energies=           -573.459619
 Sum of electronic and thermal Energies=              -573.450449
 Sum of electronic and thermal Enthalpies=            -573.449505
 Sum of electronic and thermal Free Energies=         -573.494395

                     E (Thermal)             CV                S
                      KCal/Mol        Cal/Mol-Kelvin    Cal/Mol-Kelvin
 Total                  100.431             36.102             94.479
 Electronic               0.000              0.000              0.000
 Translational            0.889              2.981             41.193
 Rotational               0.889              2.981             29.986
 Vibrational             98.654             30.141             23.300
 Vibration     1          0.600              1.963              3.917
 Vibration     2          0.609              1.934              3.117
 Vibration     3          0.611              1.927              3.002
 Vibration     4          0.628              1.871              2.359
 Vibration     5          0.630              1.866              2.320
 Vibration     6          0.689              1.685              1.452
 Vibration     7          0.766              1.471              0.964
 Vibration     8          0.791              1.405              0.858
 Vibration     9          0.829              1.312              0.732
 Vibration    10          0.922              1.104              0.512
 Vibration    11          0.978              0.994              0.420

 Optimization completed.
    -- Stationary point found.
 Normal termination of Gaussian 16 at Sun Jun 12 03:20:10 2022.
