 Gaussian 16, Revision A.03,
 Gaussian 16:  ES64L-G16RevA.03 25-Dec-2016

 ----------------------------------------------------------------------
 # Opt=(TS, CalcFC, noeigentest, Z-matrix, MaxStep=10) geom=allcheckpoi
 nt guess=read Field=read NoSymm B3LYP/Def2TZVP freq=noraman pop=none
 ----------------------------------------------------------------------

 Structure from the checkpoint file:  "checkpoint.chk"
 -----------------
 ts_zmat_initalOpt
 -----------------
 Charge =  0 Multiplicity = 1

 SCF Done:  E(RB3LYP) =  -573.624245403     A.U. after   11 cycles
 SCF Done:  E(RB3LYP) =  -573.624343999     A.U. after   11 cycles
 SCF Done:  E(RB3LYP) =  -573.624344123     A.U. after    8 cycles
 Optimization completed.
    -- Stationary point found.
 Normal termination of Gaussian 16 at Sun Jun 12 04:30:08 2022.

 --------------------------------------------------------------------
 #N Geom=AllCheck Guess=TCheck SCRF=Check GenChk RB3LYP/def2TZVP Freq
 --------------------------------------------------------------------

 Structure from the checkpoint file:  "checkpoint.chk"
 -----------------
 ts_zmat_initalOpt
 -----------------
 Charge =  0 Multiplicity = 1

                          Input orientation:
 ---------------------------------------------------------------------
 Center     Atomic      Atomic             Coordinates (Angstroms)
 Number     Number       Type             X           Y           Z
 ---------------------------------------------------------------------
      1          6           0        0.000000    0.000000    0.000000
      2          1           0        0.000000    0.000000    1.086605
      3          1           0        1.039922    0.000000   -0.350704
      4          6           0       -0.728229   -1.150034   -0.645792
      5          6           0       -0.728229    1.150034   -0.645792
      6          6           0       -1.176661    0.694297   -1.896985
      7          6           0       -1.176661   -0.694297   -1.896985
      8          1           0       -0.521097    2.187110   -0.422424
      9          1           0       -0.521097   -2.187110   -0.422424
     10          1           0       -1.551687    1.324667   -2.690003
     11          1           0       -1.551687   -1.324667   -2.690003
     12          6           0       -2.494365   -0.670190    0.564203
     13          6           0       -3.678251   -0.958881   -0.255897
     14          6           0       -2.400232    0.731039    0.657909
     15          1           0       -2.199107   -1.381125    1.319107
     16          8           0       -4.189711    0.273249   -0.723968
     17          8           0       -4.227927   -1.988019   -0.525194
     18          6           0       -3.538107    1.309715   -0.068635
     19          1           0       -1.978267    1.277882    1.485796
     20          8           0       -3.941733    2.434142   -0.149500
 ---------------------------------------------------------------------

 SCF Done:  E(RB3LYP) =  -573.624344123     A.U. after    1 cycles

 Isotropic polarizability for W=    0.000000      111.54 Bohr**3.
 End of Minotr F.D. properties file   721 does not exist.

 ******    1 imaginary frequencies (negative Signs) ******

                      1                      2                      3
                      A                      A                      A
 Frequencies --   -441.3353                65.6270               106.1168
 Red. masses --      8.9408                 5.9783                 4.5391
 Frc consts  --      1.0260                 0.0152                 0.0301
 IR Inten    --      1.6313                 2.3031                 0.2080

                      4                      5                      6
                      A                      A                      A
 Frequencies --    122.7463               171.7518               178.1614
 Red. masses --      6.8697                 7.9930                11.5750
 Frc consts  --      0.0610                 0.1389                 0.2165
 IR Inten    --      6.6914                 1.5423                 1.7323

                      7                      8                      9
                      A                      A                      A
 Frequencies --    294.0551               396.3846               429.1602
 Red. masses --      3.8843                 8.5953                 5.7564
 Frc consts  --      0.1979                 0.7957                 0.6247
 IR Inten    --      3.0392                 5.9648                 3.5988

                     10                     11                     12
                      A                      A                      A
 Frequencies --    475.1405               563.1844               621.0588
 Red. masses --      2.1959                 2.8817                 5.3105
 Frc consts  --      0.2921                 0.5385                 1.2068
 IR Inten    --      1.7236                 0.8337                24.3217

                     13                     14                     15
                      A                      A                      A
 Frequencies --    622.6746               720.0485               751.7703
 Red. masses --      9.9474                 7.1017                 6.9555
 Frc consts  --      2.2724                 2.1694                 2.3161
 IR Inten    --      4.8888                33.3109                18.5467

                     16                     17                     18
                      A                      A                      A
 Frequencies --    767.9711               777.9264               800.8180
 Red. masses --      2.2494                 6.1674                 1.2849
 Frc consts  --      0.7816                 2.1990                 0.4855
 IR Inten    --      3.8189                 2.0335                22.1570

                     19                     20                     21
                      A                      A                      A
 Frequencies --    814.2775               848.1636               857.4657
 Red. masses --      2.7790                 1.5888                 2.0611
 Frc consts  --      1.0856                 0.6734                 0.8929
 IR Inten    --      5.3199                41.1309                62.8292

                     22                     23                     24
                      A                      A                      A
 Frequencies --    879.3152               903.5559               911.3756
 Red. masses --      3.3399                 3.6646                 1.8422
 Frc consts  --      1.5215                 1.7627                 0.9015
 IR Inten    --     55.8135                52.9119                 6.7019

                     25                     26                     27
                      A                      A                      A
 Frequencies --    935.0709               976.4903               979.3210
 Red. masses --      1.4913                 1.6732                 1.7147
 Frc consts  --      0.7683                 0.9400                 0.9689
 IR Inten    --      1.5388                 1.4302                 1.4261

                     28                     29                     30
                      A                      A                      A
 Frequencies --    991.4832              1005.7309              1069.1711
 Red. masses --      1.3603                 1.3361                 1.3789
 Frc consts  --      0.7878                 0.7963                 0.9287
 IR Inten    --      5.7914                11.7596                 2.8191

                     31                     32                     33
                      A                      A                      A
 Frequencies --   1081.1124              1091.1380              1106.9427
 Red. masses --      1.7355                 1.4361                 1.2270
 Frc consts  --      1.1951                 1.0074                 0.8858
 IR Inten    --     19.1636                 6.6591                 9.2295

                     34                     35                     36
                      A                      A                      A
 Frequencies --   1126.5509              1142.0346              1256.5089
 Red. masses --      2.1255                 1.1659                 8.0892
 Frc consts  --      1.5893                 0.8959                 7.5247
 IR Inten    --      4.2995                 0.1951               241.6645

                     37                     38                     39
                      A                      A                      A
 Frequencies --   1287.8324              1316.3002              1335.6681
 Red. masses --      1.7983                 1.4956                 1.7840
 Frc consts  --      1.7573                 1.5268                 1.8752
 IR Inten    --      4.6999                 0.7396                 0.1498

                     40                     41                     42
                      A                      A                      A
 Frequencies --   1367.7202              1423.4006              1465.4282
 Red. masses --      3.0160                 3.6067                 1.1186
 Frc consts  --      3.3242                 4.3055                 1.4153
 IR Inten    --     22.6829                 2.2301                21.4521

                     43                     44                     45
                      A                      A                      A
 Frequencies --   1486.1786              1494.1255              1804.3858
 Red. masses --      3.0270                 3.0260                12.6358
 Frc consts  --      3.9392                 3.9801                24.2388
 IR Inten    --     21.8120                 2.8177               706.7430

                     46                     47                     48
                      A                      A                      A
 Frequencies --   1866.8717              3024.9355              3129.4940
 Red. masses --     12.5486                 1.0700                 1.0927
 Frc consts  --     25.7676                 5.7687                 6.3051
 IR Inten    --    385.6395                 0.5819                11.9553

                     49                     50                     51
                      A                      A                      A
 Frequencies --   3200.9143              3213.3194              3219.1133
 Red. masses --      1.0891                 1.0920                 1.0949
 Frc consts  --      6.5746                 6.6435                 6.6852
 IR Inten    --      4.0456                 2.6698                 2.0957

                     52                     53                     54
                      A                      A                      A
 Frequencies --   3223.6543              3232.7452              3237.6636
 Red. masses --      1.0903                 1.1032                 1.0969
 Frc consts  --      6.6757                 6.7927                 6.7744
 IR Inten    --      2.2535                 1.6514                 2.6471

 - Thermochemistry -
 -------------------
 Temperature   298.150 Kelvin.  Pressure   1.00000 Atm.
 Atom     1 has atomic number  6 and mass  12.00000

 Molecular mass:   164.04734 amu.
 Principal axes and moments of inertia in atomic units:
                           1         2         3
     Eigenvalues --  1277.974181719.797492306.02906
           X            0.98081   0.12955   0.14572
           Y           -0.11568   0.98824  -0.09996
           Z           -0.15696   0.08118   0.98426
 This molecule is an asymmetric top.
 Rotational symmetry number  1.
 Warning -- assumption of classical behavior for rotation
           may cause significant error
 Rotational temperatures (Kelvin)      0.06777     0.05036     0.03756
 Rotational constants (GHZ):           1.41219     1.04939     0.78262
    1 imaginary frequencies ignored.
 Zero-point vibrational energy     395784.8 (Joules/Mol)
                                   94.59484 (Kcal/Mol)
 Warning -- explicit consideration of  10 degrees of freedom as
           vibrations may cause significant error
 Vibrational temperatures:     94.42   152.68   176.60   247.11   256.33
          (Kelvin)            423.08   570.31   617.47   683.62   810.30
                              893.57   895.89  1035.99  1081.63  1104.94
                             1119.26  1152.20  1171.56  1220.32  1233.70
                             1265.14  1300.02  1311.27  1345.36  1404.95
                             1409.02  1426.52  1447.02  1538.30  1555.48
                             1569.90  1592.64  1620.86  1643.13  1807.84
                             1852.90  1893.86  1921.73  1967.84  2047.96
                             2108.42  2138.28  2149.71  2596.11  2686.01
                             4352.21  4502.64  4605.40  4623.25  4631.59
                             4638.12  4651.20  4658.28

 Zero-point correction=                           0.150746 (Hartree/Particle)
 Thermal correction to Energy=                    0.159988
 Thermal correction to Enthalpy=                  0.160932
 Thermal correction to Gibbs Free Energy=         0.115686
 Sum of electronic and zero-point Energies=           -573.473598
 Sum of electronic and thermal Energies=              -573.464356
 Sum of electronic and thermal Enthalpies=            -573.463412
 Sum of electronic and thermal Free Energies=         -573.508658

                     E (Thermal)             CV                S
                      KCal/Mol        Cal/Mol-Kelvin    Cal/Mol-Kelvin
 Total                  100.394             36.132             95.229
 Electronic               0.000              0.000              0.000
 Translational            0.889              2.981             41.193
 Rotational               0.889              2.981             30.006
 Vibrational             98.616             30.170             24.029
 Vibration     1          0.597              1.971              4.280
 Vibration     2          0.605              1.944              3.339
 Vibration     3          0.610              1.930              3.057
 Vibration     4          0.626              1.877              2.416
 Vibration     5          0.629              1.869              2.348
 Vibration     6          0.689              1.685              1.451
 Vibration     7          0.763              1.478              0.976
 Vibration     8          0.791              1.407              0.861
 Vibration     9          0.832              1.305              0.723
 Vibration    10          0.919              1.111              0.518

 Optimization completed.
    -- Stationary point found.
 Normal termination of Gaussian 16 at Sun Jun 12 04:50:26 2022.
