 Gaussian 16, Revision A.03,
 Gaussian 16:  ES64L-G16RevA.03 25-Dec-2016

 ----------------------------------------------------------------------
 # Opt=(TS, CalcFC, noeigentest, Z-matrix, MaxStep=10) geom=allcheckpoi
 nt guess=read Field=read NoSymm B3LYP/Def2TZVP freq=noraman pop=none
 ----------------------------------------------------------------------

 Structure from the checkpoint file:  "checkpoint.chk"
 -----------------
 ts_zmat_initalOpt
 -----------------
 Charge =  0 Multiplicity = 1

 SCF Done:  E(RB3LYP) =  -573.616842523     A.U. after   11 cycles
 SCF Done:  E(RB3LYP) =  -573.616944666     A.U. after   11 cycles
 SCF Done:  E(RB3LYP) =  -573.616944786     A.U. after    8 cycles
 Optimization completed.
    -- Stationary point found.
 Normal termination of Gaussian 16 at Sun Jun 12 03:45:21 2022.

 --------------------------------------------------------------------
 #N Geom=AllCheck Guess=TCheck SCRF=Check GenChk RB3LYP/def2TZVP Freq
 --------------------------------------------------------------------

 Structure from the checkpoint file:  "checkpoint.chk"
 -----------------
 ts_zmat_initalOpt
 -----------------
 Charge =  0 Multiplicity = 1

                          Input orientation:
 ---------------------------------------------------------------------
 Center     Atomic      Atomic             Coordinates (Angstroms)
 Number     Number       Type             X           Y           Z
 ---------------------------------------------------------------------
      1          6           0        0.000000    0.000000    0.000000
      2          1           0        0.000000    0.000000    1.086761
      3          1           0        1.040888    0.000000   -0.348183
      4          6           0       -0.724497   -1.150290   -0.649506
      5          6           0       -0.724497    1.150290   -0.649506
      6          6           0       -1.165861    0.694756   -1.902092
      7          6           0       -1.165861   -0.694756   -1.902092
      8          1           0       -0.521146    2.187394   -0.423508
      9          1           0       -0.521146   -2.187394   -0.423508
     10          1           0       -1.543466    1.324073   -2.694671
     11          1           0       -1.543466   -1.324073   -2.694671
     12          6           0       -2.490321   -0.678186    0.561706
     13          6           0       -3.657028   -1.001016   -0.273279
     14          6           0       -2.417993    0.722939    0.635649
     15          1           0       -2.188620   -1.374211    1.327778
     16          8           0       -4.177580    0.211154   -0.769431
     17          8           0       -4.177136   -2.045473   -0.536812
     18          6           0       -3.549557    1.272022   -0.126386
     19          1           0       -2.018016    1.291270    1.459882
     20          8           0       -3.957952    2.390404   -0.241646
 ---------------------------------------------------------------------

 SCF Done:  E(RB3LYP) =  -573.616944786     A.U. after    1 cycles

 Isotropic polarizability for W=    0.000000      111.30 Bohr**3.
 End of Minotr F.D. properties file   721 does not exist.

 ******    1 imaginary frequencies (negative Signs) ******

                      1                      2                      3
                      A                      A                      A
 Frequencies --   -447.3257                75.0473               112.7021
 Red. masses --      9.0513                 5.9085                 4.4431
 Frc consts  --      1.0671                 0.0196                 0.0333
 IR Inten    --      1.1809                 1.9257                 0.0403

                      4                      5                      6
                      A                      A                      A
 Frequencies --    124.4340               174.9754               178.6831
 Red. masses --      7.0319                 9.2269                 9.7854
 Frc consts  --      0.0642                 0.1664                 0.1841
 IR Inten    --      6.1702                 1.7495                 1.7475

                      7                      8                      9
                      A                      A                      A
 Frequencies --    293.9150               398.0657               429.6514
 Red. masses --      3.8607                 8.6436                 5.7854
 Frc consts  --      0.1965                 0.8070                 0.6292
 IR Inten    --      2.7535                 5.7377                 2.9166

                     10                     11                     12
                      A                      A                      A
 Frequencies --    473.6272               564.7055               619.5329
 Red. masses --      2.1885                 2.8868                 5.1612
 Frc consts  --      0.2892                 0.5424                 1.1672
 IR Inten    --      1.7805                 0.7406                20.4815

                     13                     14                     15
                      A                      A                      A
 Frequencies --    623.3868               720.2552               749.7968
 Red. masses --     10.2617                 7.1938                 7.0008
 Frc consts  --      2.3496                 2.1988                 2.3189
 IR Inten    --      4.6947                32.5530                18.1808

                     16                     17                     18
                      A                      A                      A
 Frequencies --    768.0405               777.9761               800.3773
 Red. masses --      2.1613                 6.4791                 1.2660
 Frc consts  --      0.7512                 2.3104                 0.4778
 IR Inten    --      4.6667                 1.8641                22.0814

                     19                     20                     21
                      A                      A                      A
 Frequencies --    814.0092               848.6526               859.5177
 Red. masses --      2.8090                 1.5773                 1.8341
 Frc consts  --      1.0966                 0.6693                 0.7983
 IR Inten    --      4.0743                43.1769                46.7326

                     22                     23                     24
                      A                      A                      A
 Frequencies --    881.8516               900.9820               912.2372
 Red. masses --      4.2093                 4.1505                 1.8211
 Frc consts  --      1.9286                 1.9851                 0.8929
 IR Inten    --     70.9997                60.6433                 5.9194

                     25                     26                     27
                      A                      A                      A
 Frequencies --    935.0136               976.8838               978.9631
 Red. masses --      1.4629                 1.6704                 1.7053
 Frc consts  --      0.7535                 0.9392                 0.9629
 IR Inten    --      0.7334                 1.2326                 1.2450

                     28                     29                     30
                      A                      A                      A
 Frequencies --    991.6771              1003.1956              1068.9002
 Red. masses --      1.3574                 1.3403                 1.3696
 Frc consts  --      0.7865                 0.7947                 0.9220
 IR Inten    --      5.4873                11.3031                 2.0502

                     31                     32                     33
                      A                      A                      A
 Frequencies --   1080.1963              1091.4206              1106.6233
 Red. masses --      1.8622                 1.3687                 1.2171
 Frc consts  --      1.2802                 0.9606                 0.8782
 IR Inten    --     22.3974                 5.4620                 8.2836

                     34                     35                     36
                      A                      A                      A
 Frequencies --   1126.2136              1140.8500              1255.3355
 Red. masses --      2.1618                 1.1648                 8.0625
 Frc consts  --      1.6155                 0.8932                 7.4858
 IR Inten    --      4.0834                 0.2230               237.5741

                     37                     38                     39
                      A                      A                      A
 Frequencies --   1287.1451              1316.3877              1335.5469
 Red. masses --      1.7972                 1.4998                 1.7884
 Frc consts  --      1.7543                 1.5313                 1.8795
 IR Inten    --      4.5910                 0.7738                 0.1105

                     40                     41                     42
                      A                      A                      A
 Frequencies --   1368.9365              1427.1320              1466.2742
 Red. masses --      3.0600                 3.6112                 1.1250
 Frc consts  --      3.3787                 4.3334                 1.4250
 IR Inten    --     20.5774                 2.5918                19.7174

                     43                     44                     45
                      A                      A                      A
 Frequencies --   1488.4622              1493.2482              1810.6047
 Red. masses --      3.0587                 2.9995                12.6635
 Frc consts  --      3.9926                 3.9406                24.4596
 IR Inten    --     19.5279                 2.2836               704.3764

                     46                     47                     48
                      A                      A                      A
 Frequencies --   1872.3753              3022.3893              3127.3363
 Red. masses --     12.5558                 1.0702                 1.0923
 Frc consts  --     25.9346                 5.7599                 6.2943
 IR Inten    --    351.2267                 0.0511                12.4468

                     49                     50                     51
                      A                      A                      A
 Frequencies --   3202.9975              3213.0977              3219.7698
 Red. masses --      1.0889                 1.0920                 1.0950
 Frc consts  --      6.5817                 6.6421                 6.6882
 IR Inten    --      2.9670                 1.3005                 1.9733

                     52                     53                     54
                      A                      A                      A
 Frequencies --   3224.8680              3232.7915              3238.3688
 Red. masses --      1.0901                 1.1033                 1.0972
 Frc consts  --      6.6792                 6.7939                 6.7793
 IR Inten    --      1.7132                 1.0182                 1.4772

 - Thermochemistry -
 -------------------
 Temperature   298.150 Kelvin.  Pressure   1.00000 Atm.
 Atom     1 has atomic number  6 and mass  12.00000

 Molecular mass:   164.04734 amu.
 Principal axes and moments of inertia in atomic units:
                           1         2         3
     Eigenvalues --  1280.861601707.299752293.37987
           X            0.98556   0.10110   0.13581
           Y           -0.09112   0.99280  -0.07779
           Z           -0.14270   0.06429   0.98768
 This molecule is an asymmetric top.
 Rotational symmetry number  1.
 Warning -- assumption of classical behavior for rotation
           may cause significant error
 Rotational temperatures (Kelvin)      0.06762     0.05073     0.03777
 Rotational constants (GHZ):           1.40901     1.05707     0.78694
    1 imaginary frequencies ignored.
 Zero-point vibrational energy     395996.4 (Joules/Mol)
                                   94.64541 (Kcal/Mol)
 Warning -- explicit consideration of  11 degrees of freedom as
           vibrations may cause significant error
 Vibrational temperatures:    107.98   162.15   179.03   251.75   257.09
          (Kelvin)            422.88   572.73   618.17   681.44   812.49
                              891.37   896.91  1036.29  1078.79  1105.04
                             1119.33  1151.56  1171.18  1221.02  1236.65
                             1268.79  1296.31  1312.51  1345.28  1405.52
                             1408.51  1426.80  1443.37  1537.91  1554.16
                             1570.31  1592.18  1620.37  1641.43  1806.15
                             1851.91  1893.99  1921.55  1969.59  2053.32
                             2109.64  2141.57  2148.45  2605.06  2693.93
                             4348.54  4499.54  4608.40  4622.93  4632.53
                             4639.87  4651.27  4659.29

 Zero-point correction=                           0.150827 (Hartree/Particle)
 Thermal correction to Energy=                    0.160027
 Thermal correction to Enthalpy=                  0.160971
 Thermal correction to Gibbs Free Energy=         0.115944
 Sum of electronic and zero-point Energies=           -573.466118
 Sum of electronic and thermal Energies=              -573.456918
 Sum of electronic and thermal Enthalpies=            -573.455974
 Sum of electronic and thermal Free Energies=         -573.501001

                     E (Thermal)             CV                S
                      KCal/Mol        Cal/Mol-Kelvin    Cal/Mol-Kelvin
 Total                  100.418             36.114             94.767
 Electronic               0.000              0.000              0.000
 Translational            0.889              2.981             41.193
 Rotational               0.889              2.981             29.996
 Vibrational             98.641             30.152             23.578
 Vibration     1          0.599              1.966              4.016
 Vibration     2          0.607              1.939              3.222
 Vibration     3          0.610              1.929              3.030
 Vibration     4          0.627              1.873              2.381
 Vibration     5          0.629              1.869              2.342
 Vibration     6          0.689              1.685              1.451
 Vibration     7          0.764              1.474              0.970
 Vibration     8          0.791              1.406              0.860
 Vibration     9          0.830              1.309              0.727
 Vibration    10          0.921              1.108              0.515
 Vibration    11          0.979              0.991              0.417

 Optimization completed.
    -- Stationary point found.
 Normal termination of Gaussian 16 at Sun Jun 12 04:05:12 2022.
