 Gaussian 16, Revision A.03,
 Gaussian 16:  ES64L-G16RevA.03 25-Dec-2016

 ----------------------------------------------------------------------
 # Opt=(Z-matrix, MaxStep=10) B3LYP/Def2TZVP geom=allcheckpoint guess=r
 ead Field=read NoSymm freq=noraman pop=none
 ----------------------------------------------------------------------

 Structure from the checkpoint file:  "checkpoint.chk"
 ------------------
 int_zmat_initalOpt
 ------------------
 Charge =  0 Multiplicity = 1

 SCF Done:  E(RB3LYP) =  -309.746569999     A.U. after    9 cycles
 SCF Done:  E(RB3LYP) =  -309.745719621     A.U. after   10 cycles
 SCF Done:  E(RB3LYP) =  -309.746108038     A.U. after   11 cycles
 SCF Done:  E(RB3LYP) =  -309.746569999     A.U. after    8 cycles
 SCF Done:  E(RB3LYP) =  -309.746297346     A.U. after   10 cycles
 SCF Done:  E(RB3LYP) =  -309.746573120     A.U. after    9 cycles
 SCF Done:  E(RB3LYP) =  -309.746570357     A.U. after    7 cycles
 SCF Done:  E(RB3LYP) =  -309.746573594     A.U. after    6 cycles
 Optimization completed.
    -- Stationary point found.
 Normal termination of Gaussian 16 at Sat Jun 11 00:15:34 2022.

 --------------------------------------------------------------------
 #N Geom=AllCheck Guess=TCheck SCRF=Check GenChk RB3LYP/def2TZVP Freq
 --------------------------------------------------------------------

 Structure from the checkpoint file:  "checkpoint.chk"
 ------------------
 int_zmat_initalOpt
 ------------------
 Charge =  0 Multiplicity = 1

                          Input orientation:
 ---------------------------------------------------------------------
 Center     Atomic      Atomic             Coordinates (Angstroms)
 Number     Number       Type             X           Y           Z
 ---------------------------------------------------------------------
      1          1           0        0.000000    0.000000    0.000000
      2          6           0        0.000000    0.000000    1.082372
      3          6           0        1.216141    0.000000    1.772209
      4          6           0       -1.226040    0.000000    1.753876
      5          1           0        2.155331    0.000049    1.232644
      6          6           0        1.128239    0.000020    3.152477
      7          6           0       -1.299712    0.000050    3.150093
      8          1           0       -2.138206   -0.000035    1.171222
      9          6           0        1.941300    0.000144    4.437256
     10          6           0       -0.089364    0.000103    3.819341
     11          1           0       -2.260148    0.000112    3.650843
     12          1           0        2.555093   -0.888369    4.612645
     13          6           0        0.555305    0.000132    5.196268
     14          1           0        2.555009    0.888746    4.612481
     15          1           0        0.372394    0.888617    5.807887
     16          1           0        0.372433   -0.888408    5.807818
 ---------------------------------------------------------------------

 SCF Done:  E(RB3LYP) =  -309.746573594     A.U. after    1 cycles

 Isotropic polarizability for W=    0.000000       88.58 Bohr**3.
 End of Minotr F.D. properties file   721 does not exist.

                      1                      2                      3
                      A                      A                      A
 Frequencies --    193.0237               211.2395               401.4716
 Red. masses --      1.8882                 3.2035                 2.7739
 Frc consts  --      0.0415                 0.0842                 0.2634
 IR Inten    --      0.0004                 8.2293                 5.5474

                      4                      5                      6
                      A                      A                      A
 Frequencies --    415.7375               486.6901               551.5579
 Red. masses --      3.3810                 2.9052                 5.7671
 Frc consts  --      0.3443                 0.4055                 1.0337
 IR Inten    --      2.1116                 0.0000                 0.0565

                      7                      8                      9
                      A                      A                      A
 Frequencies --    644.8740               715.0991               741.3264
 Red. masses --      6.3135                 3.4595                 1.1381
 Frc consts  --      1.5469                 1.0423                 0.3685
 IR Inten    --      0.0025                 0.0000                37.8358

                     10                     11                     12
                      A                      A                      A
 Frequencies --    790.2948               806.0239               863.7188
 Red. masses --      3.7907                 1.1811                 4.4181
 Frc consts  --      1.3949                 0.4521                 1.9419
 IR Inten    --      2.0969                23.1983                 0.6251

                     13                     14                     15
                      A                      A                      A
 Frequencies --    888.0188               901.0000               956.1265
 Red. masses --      1.2528                 3.4299                 1.3514
 Frc consts  --      0.5821                 1.6405                 0.7279
 IR Inten    --      0.0000                 1.3175                 0.0000

                     16                     17                     18
                      A                      A                      A
 Frequencies --   1016.6504              1024.4464              1045.1506
 Red. masses --      1.3115                 2.1657                 1.9572
 Frc consts  --      0.7987                 1.3392                 1.2596
 IR Inten    --      0.0000                 1.1104                 0.0000

                     19                     20                     21
                      A                      A                      A
 Frequencies --   1084.8313              1103.7254              1153.8575
 Red. masses --      1.1777                 3.3357                 1.6330
 Frc consts  --      0.8166                 2.3942                 1.2810
 IR Inten    --      0.7905                 0.2286                 1.7908

                     22                     23                     24
                      A                      A                      A
 Frequencies --   1178.2854              1185.1623              1196.3175
 Red. masses --      1.1478                 1.2408                 1.5454
 Frc consts  --      0.9389                 1.0268                 1.3031
 IR Inten    --      0.0000                 0.2477                 2.2738

                     25                     26                     27
                      A                      A                      A
 Frequencies --   1223.3295              1225.1677              1311.4239
 Red. masses --      2.6564                 1.4868                 1.5639
 Frc consts  --      2.3422                 1.3149                 1.5847
 IR Inten    --      1.6270                 6.6507                 1.6335

                     28                     29                     30
                      A                      A                      A
 Frequencies --   1363.9281              1466.5836              1480.0938
 Red. masses --      4.2480                 1.0857                 1.3325
 Frc consts  --      4.6561                 1.3758                 1.7199
 IR Inten    --      2.3983                 0.0001                 0.5274

                     31                     32                     33
                      A                      A                      A
 Frequencies --   1499.5385              1500.1752              1632.5021
 Red. masses --      2.2271                 1.9018                 6.5394
 Frc consts  --      2.9505                 2.5218                10.2683
 IR Inten    --      4.4072                18.0166                 0.3611

                     34                     35                     36
                      A                      A                      A
 Frequencies --   1646.5210              3009.7487              3016.6414
 Red. masses --      6.6310                 1.0546                 1.0570
 Frc consts  --     10.5917                 5.6285                 5.6674
 IR Inten    --      0.0011                74.0347               163.1417

                     37                     38                     39
                      A                      A                      A
 Frequencies --   3038.4826              3056.2455              3172.9729
 Red. masses --      1.1081                 1.1069                 1.0886
 Frc consts  --      6.0274                 6.0918                 6.4576
 IR Inten    --      0.0012                84.5027                15.5438

                     40                     41                     42
                      A                      A                      A
 Frequencies --   3175.6566              3189.9518              3201.3887
 Red. masses --      1.0896                 1.0921                 1.0961
 Frc consts  --      6.4742                 6.5475                 6.6189
 IR Inten    --      0.0051                 6.5011                 0.4483

 - Thermochemistry -
 -------------------
 Temperature   298.150 Kelvin.  Pressure   1.00000 Atm.
 Atom     1 has atomic number  1 and mass   1.00783

 Molecular mass:   104.06260 amu.
 Principal axes and moments of inertia in atomic units:
                           1         2         3
     Eigenvalues --   402.92042 863.051511243.24076
           X            0.48034   0.87708  -0.00001
           Y            0.00003  -0.00001   1.00000
           Z            0.87708  -0.48034  -0.00004
 This molecule is an asymmetric top.
 Rotational symmetry number  1.
 Rotational temperatures (Kelvin)      0.21497     0.10036     0.06967
 Rotational constants (GHZ):           4.47915     2.09112     1.45164
 Zero-point vibrational energy     351492.6 (Joules/Mol)
                                   84.00876 (Kcal/Mol)
 Warning -- explicit consideration of   6 degrees of freedom as
           vibrations may cause significant error
 Vibrational temperatures:    277.72   303.93   577.63   598.15   700.24
          (Kelvin)            793.57   927.83  1028.87  1066.60  1137.06
                             1159.69  1242.70  1277.66  1296.34  1375.65
                             1462.73  1473.95  1503.74  1560.83  1588.01
                             1660.14  1695.29  1705.18  1721.23  1760.10
                             1762.74  1886.85  1962.39  2110.09  2129.52
                             2157.50  2158.42  2348.81  2368.98  4330.36
                             4340.27  4371.70  4397.26  4565.20  4569.06
                             4589.63  4606.08

 Zero-point correction=                           0.133876 (Hartree/Particle)
 Thermal correction to Energy=                    0.139863
 Thermal correction to Enthalpy=                  0.140807
 Thermal correction to Gibbs Free Energy=         0.104044
 Sum of electronic and zero-point Energies=           -309.612697
 Sum of electronic and thermal Energies=              -309.606711
 Sum of electronic and thermal Enthalpies=            -309.605766
 Sum of electronic and thermal Free Energies=         -309.642529

                     E (Thermal)             CV                S
                      KCal/Mol        Cal/Mol-Kelvin    Cal/Mol-Kelvin
 Total                   87.765             24.285             77.374
 Electronic               0.000              0.000              0.000
 Translational            0.889              2.981             39.837
 Rotational               0.889              2.981             27.560
 Vibrational             85.988             18.323              9.977
 Vibration     1          0.635              1.850              2.199
 Vibration     2          0.643              1.824              2.033
 Vibration     3          0.767              1.467              0.957
 Vibration     4          0.779              1.436              0.907
 Vibration     5          0.843              1.280              0.692
 Vibration     6          0.907              1.136              0.541

 Optimization completed.
    -- Stationary point found.
 Normal termination of Gaussian 16 at Sat Jun 11 00:21:43 2022.
