 Gaussian 16, Revision A.03,
 Gaussian 16:  ES64L-G16RevA.03 25-Dec-2016

 ----------------------------------------------------------------------
 # Opt=(Z-matrix, MaxStep=10) B3LYP/Def2TZVP Field=read NoSymm freq=nor
 aman pop=none
 ----------------------------------------------------------------------

 ------------------
 int_zmat_initalOpt
 ------------------
 Symbolic Z-matrix:
 Charge =  0 Multiplicity = 1

 SCF Done:  E(RB3LYP) =  -309.742687584     A.U. after   13 cycles
 SCF Done:  E(RB3LYP) =  -309.742689775     A.U. after    7 cycles
 SCF Done:  E(RB3LYP) =  -309.742687640     A.U. after    7 cycles
 SCF Done:  E(RB3LYP) =  -309.742689906     A.U. after    6 cycles
 Optimization completed.
    -- Stationary point found.
 Normal termination of Gaussian 16 at Fri Jun 10 22:28:43 2022.

 --------------------------------------------------------------------
 #N Geom=AllCheck Guess=TCheck SCRF=Check GenChk RB3LYP/def2TZVP Freq
 --------------------------------------------------------------------

 Structure from the checkpoint file:  "checkpoint.chk"
 ------------------
 int_zmat_initalOpt
 ------------------
 Charge =  0 Multiplicity = 1

                          Input orientation:
 ---------------------------------------------------------------------
 Center     Atomic      Atomic             Coordinates (Angstroms)
 Number     Number       Type             X           Y           Z
 ---------------------------------------------------------------------
      1          1           0        0.000000    0.000000    0.000000
      2          6           0        0.000000    0.000000    1.082851
      3          6           0        1.217903    0.000000    1.770726
      4          6           0       -1.223628    0.000010    1.756771
      5          1           0        2.158088   -0.000003    1.232596
      6          6           0        1.134620   -0.000001    3.150680
      7          6           0       -1.293301    0.000033    3.153763
      8          1           0       -2.138868    0.000007    1.178062
      9          6           0        1.949282    0.000011    4.433407
     10          6           0       -0.082530    0.000042    3.821027
     11          1           0       -2.250671    0.000054    3.660690
     12          1           0        2.562406   -0.887164    4.604956
     13          6           0        0.566068    0.000106    5.195177
     14          1           0        2.562548    0.887105    4.604860
     15          1           0        0.383185    0.887265    5.805038
     16          1           0        0.383119   -0.886968    5.805141
 ---------------------------------------------------------------------

 SCF Done:  E(RB3LYP) =  -309.742689906     A.U. after    1 cycles

 Isotropic polarizability for W=    0.000000       87.87 Bohr**3.
 End of Minotr F.D. properties file   721 does not exist.

                      1                      2                      3
                      A                      A                      A
 Frequencies --    192.7052               214.5346               401.9073
 Red. masses --      1.8855                 3.1791                 2.7537
 Frc consts  --      0.0413                 0.0862                 0.2621
 IR Inten    --      0.0003                 7.0874                 5.4811

                      4                      5                      6
                      A                      A                      A
 Frequencies --    415.0335               490.5093               550.6297
 Red. masses --      3.4053                 2.8883                 5.7736
 Frc consts  --      0.3456                 0.4094                 1.0314
 IR Inten    --      2.1842                 0.0000                 0.2147

                      7                      8                      9
                      A                      A                      A
 Frequencies --    645.9632               716.9254               732.5368
 Red. masses --      6.3043                 3.4705                 1.1379
 Frc consts  --      1.5499                 1.0510                 0.3597
 IR Inten    --      0.1238                 0.0001                37.2819

                     10                     11                     12
                      A                      A                      A
 Frequencies --    793.2099               799.0128               867.1997
 Red. masses --      3.8542                 1.1840                 4.4332
 Frc consts  --      1.4288                 0.4453                 1.9643
 IR Inten    --      0.3697                24.5416                 0.6468

                     13                     14                     15
                      A                      A                      A
 Frequencies --    883.2227               905.9051               941.9972
 Red. masses --      1.2642                 3.4543                 1.3605
 Frc consts  --      0.5810                 1.6702                 0.7113
 IR Inten    --      0.0000                 0.7570                 0.4035

                     16                     17                     18
                      A                      A                      A
 Frequencies --    983.0289              1024.4652              1049.3094
 Red. masses --      1.2680                 2.1668                 2.0815
 Frc consts  --      0.7220                 1.3399                 1.3503
 IR Inten    --      0.0000                 2.9587                 0.0000

                     19                     20                     21
                      A                      A                      A
 Frequencies --   1093.0989              1105.1685              1154.5062
 Red. masses --      1.1749                 2.8603                 1.7813
 Frc consts  --      0.8271                 2.0583                 1.3989
 IR Inten    --      0.2131                 0.2544                 1.3931

                     22                     23                     24
                      A                      A                      A
 Frequencies --   1179.3776              1185.1350              1205.3922
 Red. masses --      1.1924                 1.1347                 1.6851
 Frc consts  --      0.9772                 0.9390                 1.4426
 IR Inten    --      0.0785                 0.0000                 0.0379

                     25                     26                     27
                      A                      A                      A
 Frequencies --   1222.2941              1234.6246              1311.0310
 Red. masses --      2.4038                 1.4792                 1.5461
 Frc consts  --      2.1159                 1.3284                 1.5657
 IR Inten    --      3.2827                 5.2136                 2.2448

                     28                     29                     30
                      A                      A                      A
 Frequencies --   1365.1606              1466.7322              1480.4994
 Red. masses --      4.2657                 1.0855                 1.3346
 Frc consts  --      4.6839                 1.3758                 1.7235
 IR Inten    --      2.0242                 0.9886                 3.2705

                     31                     32                     33
                      A                      A                      A
 Frequencies --   1495.8636              1500.9464              1636.0478
 Red. masses --      2.2591                 1.9370                 6.5866
 Frc consts  --      2.9783                 2.5711                10.3874
 IR Inten    --      3.3549                14.0287                 0.0195

                     34                     35                     36
                      A                      A                      A
 Frequencies --   1644.3299              3037.8666              3043.1493
 Red. masses --      6.6201                 1.0557                 1.0581
 Frc consts  --     10.5461                 5.7405                 5.7731
 IR Inten    --      0.3659                42.6106                84.2211

                     37                     38                     39
                      A                      A                      A
 Frequencies --   3071.8729              3087.6242              3165.4213
 Red. masses --      1.1086                 1.1069                 1.0861
 Frc consts  --      6.1634                 6.2172                 6.4117
 IR Inten    --      0.0000                45.6071                 4.1569

                     40                     41                     42
                      A                      A                      A
 Frequencies --   3171.4081              3181.0372              3192.1404
 Red. masses --      1.0888                 1.0930                 1.0961
 Frc consts  --      6.4524                 6.5165                 6.5808
 IR Inten    --      1.2186                25.2342                12.3592

 - Thermochemistry -
 -------------------
 Temperature   298.150 Kelvin.  Pressure   1.00000 Atm.
 Atom     1 has atomic number  1 and mass   1.00783

 Molecular mass:   104.06260 amu.
 Principal axes and moments of inertia in atomic units:
                           1         2         3
     Eigenvalues --   402.63624 862.854371242.83149
           X            0.48242   0.87594   0.00001
           Y            0.00001  -0.00002   1.00000
           Z            0.87594  -0.48242  -0.00002
 This molecule is an asymmetric top.
 Rotational symmetry number  1.
 Rotational temperatures (Kelvin)      0.21512     0.10038     0.06969
 Rotational constants (GHZ):           4.48231     2.09159     1.45212
 Zero-point vibrational energy     351934.3 (Joules/Mol)
                                   84.11432 (Kcal/Mol)
 Warning -- explicit consideration of   6 degrees of freedom as
           vibrations may cause significant error
 Vibrational temperatures:    277.26   308.67   578.25   597.14   705.73
          (Kelvin)            792.23   929.40  1031.50  1053.96  1141.25
                             1149.60  1247.71  1270.76  1303.40  1355.32
                             1414.36  1473.98  1509.72  1572.73  1590.09
                             1661.08  1696.86  1705.14  1734.29  1758.61
                             1776.35  1886.28  1964.16  2110.30  2130.11
                             2152.21  2159.53  2353.91  2365.82  4370.81
                             4378.41  4419.74  4442.40  4554.34  4562.95
                             4576.80  4592.78

 Zero-point correction=                           0.134045 (Hartree/Particle)
 Thermal correction to Energy=                    0.140031
 Thermal correction to Enthalpy=                  0.140976
 Thermal correction to Gibbs Free Energy=         0.104220
 Sum of electronic and zero-point Energies=           -309.608645
 Sum of electronic and thermal Energies=              -309.602659
 Sum of electronic and thermal Enthalpies=            -309.601714
 Sum of electronic and thermal Free Energies=         -309.638470

                     E (Thermal)             CV                S
                      KCal/Mol        Cal/Mol-Kelvin    Cal/Mol-Kelvin
 Total                   87.871             24.316             77.359
 Electronic               0.000              0.000              0.000
 Translational            0.889              2.981             39.837
 Rotational               0.889              2.981             27.559
 Vibrational             86.094             18.354              9.963
 Vibration     1          0.635              1.850              2.202
 Vibration     2          0.644              1.819              2.005
 Vibration     3          0.768              1.466              0.956
 Vibration     4          0.778              1.438              0.909
 Vibration     5          0.846              1.271              0.682
 Vibration     6          0.906              1.138              0.543

 Optimization completed.
    -- Stationary point found.
 Normal termination of Gaussian 16 at Fri Jun 10 22:34:51 2022.
