 Gaussian 16, Revision A.03,
 Gaussian 16:  ES64L-G16RevA.03 25-Dec-2016

 --------------------------
 # sp B3LYP/Def2TZVP NoSymm
 --------------------------

 ---------------------------
 ts_initalOpt_zmat_AlignedSp
 ---------------------------
 Symbolic Z-matrix:
 Charge =  0 Multiplicity = 1

                          Input orientation:
 ---------------------------------------------------------------------
 Center     Atomic      Atomic             Coordinates (Angstroms)
 Number     Number       Type             X           Y           Z
 ---------------------------------------------------------------------
      1          1           0        0.000000    0.000000    0.000000
      2          6           0        0.000000    0.000000    1.082981
      3          6           0        1.199741    0.000000    1.765977
      4          6           0       -1.237734   -0.052301    1.764119
      5          1           0        2.144627   -0.027468    1.236379
      6          6           0        1.138216   -0.077602    3.167937
      7          6           0       -1.304873   -0.011140    3.142400
      8          1           0       -2.151589   -0.085513    1.183933
      9          6           0        2.099237   -0.382929    4.173170
     10          6           0       -0.090164    0.108372    3.839177
     11          1           0       -2.259011    0.015992    3.655162
     12          1           0        1.902275   -1.220429    4.822926
     13          6           0        0.237503    0.460533    5.179287
     14          1           0        3.144881   -0.089857    4.102998
     15          1           0        0.877315    1.314127    5.335495
     16          1           0       -0.377595    0.183108    6.033029
 ---------------------------------------------------------------------

 SCF Done:  E(RB3LYP) =  -309.678348250     A.U. after   14 cycles

 Alpha  occ. eigenvalues --  -10.19119 -10.19119 -10.18024 -10.17978 -10.17685
 Alpha  occ. eigenvalues --  -10.17684 -10.17570 -10.17525  -0.87271  -0.79379
 Alpha  occ. eigenvalues --   -0.75980  -0.68333  -0.66637  -0.59379  -0.56988
 Alpha  occ. eigenvalues --   -0.51025  -0.47434  -0.45895  -0.44913  -0.42905
 Alpha  occ. eigenvalues --   -0.41364  -0.40141  -0.36344  -0.35282  -0.34451
 Alpha  occ. eigenvalues --   -0.27423  -0.24837  -0.21797
 Alpha virt. eigenvalues --   -0.06621  -0.00702  -0.00261   0.05535   0.05897
 Alpha virt. eigenvalues --    0.07497   0.09649   0.10165   0.11225   0.11310
 Alpha virt. eigenvalues --    0.12560   0.13340   0.14220   0.16656   0.18311

 Mulliken charges:
               1
     1  H    0.108264
     2  C   -0.097126
     3  C   -0.196987
     4  C   -0.097179
     5  H    0.102882
     6  C    0.108440
     7  C   -0.196892
     8  H    0.108264
     9  C   -0.290407
    10  C    0.108334
    11  H    0.102881
    12  H    0.146733
    13  C   -0.290397
    14  H    0.118230
    15  H    0.146733
    16  H    0.118227
 Sum of Mulliken charges =  -0.00000

 Dipole moment (field-independent basis, Debye):
    X=              0.0959    Y=              0.0035    Z=              0.1744  Tot=              0.1991
 Quadrupole moment (field-independent basis, Debye-Ang):
   XX=            -44.1610   YY=            -51.2392   ZZ=            -43.5665
   XY=              0.4065   XZ=             -0.0008   YZ=             -0.0826

 Normal termination of Gaussian 16 at Fri Jun 10 22:23:01 2022.
