 Gaussian 16, Revision A.03,
 Gaussian 16:  ES64L-G16RevA.03 25-Dec-2016

 ----------------------------------------------------------------------
 # Opt=(TS, CalcFC, noeigentest, Z-matrix, MaxStep=10) geom=allcheckpoi
 nt guess=read Field=read NoSymm B3LYP/Def2TZVP freq=noraman pop=none
 ----------------------------------------------------------------------

 Structure from the checkpoint file:  "checkpoint.chk"
 -----------------
 ts_zmat_initalOpt
 -----------------
 Charge =  0 Multiplicity = 1

 SCF Done:  E(RB3LYP) =  -309.684028720     A.U. after   11 cycles
 SCF Done:  E(RB3LYP) =  -309.684039432     A.U. after   10 cycles
 Optimization completed.
    -- Stationary point found.
 Normal termination of Gaussian 16 at Sat Jun 11 00:31:09 2022.

 --------------------------------------------------------------------
 #N Geom=AllCheck Guess=TCheck SCRF=Check GenChk RB3LYP/def2TZVP Freq
 --------------------------------------------------------------------

 Structure from the checkpoint file:  "checkpoint.chk"
 -----------------
 ts_zmat_initalOpt
 -----------------
 Charge =  0 Multiplicity = 1

                          Input orientation:
 ---------------------------------------------------------------------
 Center     Atomic      Atomic             Coordinates (Angstroms)
 Number     Number       Type             X           Y           Z
 ---------------------------------------------------------------------
      1          1           0        0.000000    0.000000    0.000000
      2          6           0        0.000000    0.000000    1.082334
      3          6           0        1.198021    0.000000    1.768684
      4          6           0       -1.239657   -0.052650    1.759383
      5          1           0        2.141511   -0.028693    1.237235
      6          6           0        1.132494   -0.075592    3.169641
      7          6           0       -1.311219   -0.022246    3.137891
      8          1           0       -2.149552   -0.077533    1.173790
      9          6           0        2.096660   -0.377652    4.180581
     10          6           0       -0.098884    0.084657    3.839007
     11          1           0       -2.269145    0.005611    3.642902
     12          1           0        1.928355   -1.251915    4.789764
     13          6           0        0.225199    0.421754    5.189634
     14          1           0        3.143009   -0.080959    4.093215
     15          1           0        0.817469    1.307594    5.357774
     16          1           0       -0.411013    0.136148    6.028782
 ---------------------------------------------------------------------

 SCF Done:  E(RB3LYP) =  -309.684039432     A.U. after    1 cycles

 Isotropic polarizability for W=    0.000000       98.81 Bohr**3.
 End of Minotr F.D. properties file   721 does not exist.

 ******    1 imaginary frequencies (negative Signs) ******

                      1                      2                      3
                      A                      A                      A
 Frequencies --   -623.7679               223.9372               224.1009
 Red. masses --      2.1765                 2.8690                 3.2057
 Frc consts  --      0.4989                 0.0848                 0.0949
 IR Inten    --     18.6174                 1.3169                 4.9948

                      4                      5                      6
                      A                      A                      A
 Frequencies --    397.0142               431.7468               519.8804
 Red. masses --      2.7696                 2.9826                 3.0593
 Frc consts  --      0.2572                 0.3276                 0.4872
 IR Inten    --      6.8852                 5.2104                 0.9191

                      7                      8                      9
                      A                      A                      A
 Frequencies --    577.2380               590.4090               655.0924
 Red. masses --      5.2631                 3.9070                 1.2810
 Frc consts  --      1.0332                 0.8024                 0.3239
 IR Inten    --      0.5112                 5.1432                14.8902

                     10                     11                     12
                      A                      A                      A
 Frequencies --    664.6008               747.5349               780.0794
 Red. masses --      1.1044                 3.1478                 1.2385
 Frc consts  --      0.2874                 1.0364                 0.4440
 IR Inten    --      2.2705                 5.3677                56.5228

                     13                     14                     15
                      A                      A                      A
 Frequencies --    814.5256               863.9303               869.2879
 Red. masses --      3.7078                 1.3094                 1.4862
 Frc consts  --      1.4494                 0.5758                 0.6617
 IR Inten    --      1.8702                17.0827                18.5690

                     16                     17                     18
                      A                      A                      A
 Frequencies --    882.6088               890.6341               965.5401
 Red. masses --      3.6567                 1.5689                 1.3429
 Frc consts  --      1.6783                 0.7333                 0.7376
 IR Inten    --      0.9547                41.6451                 4.6698

                     19                     20                     21
                      A                      A                      A
 Frequencies --   1013.1726              1014.8464              1019.1480
 Red. masses --      1.4539                 1.5267                 1.8022
 Frc consts  --      0.8793                 0.9264                 1.1029
 IR Inten    --      2.3496                 0.0023                 0.1890

                     22                     23                     24
                      A                      A                      A
 Frequencies --   1045.8429              1148.7505              1189.7841
 Red. masses --      1.5334                 1.5160                 1.1123
 Frc consts  --      0.9882                 1.1787                 0.9277
 IR Inten    --      9.1759                 1.4636                 0.0321

                     25                     26                     27
                      A                      A                      A
 Frequencies --   1236.2353              1323.1901              1328.7389
 Red. masses --      2.3567                 1.6674                 2.7846
 Frc consts  --      2.1220                 1.7200                 2.8967
 IR Inten    --      8.1460                 1.4148                 0.6221

                     28                     29                     30
                      A                      A                      A
 Frequencies --   1372.3642              1471.7044              1489.9242
 Red. masses --      4.1166                 1.3662                 1.5512
 Frc consts  --      4.5681                 1.7434                 2.0289
 IR Inten    --      1.4163                10.0514                 6.5626

                     31                     32                     33
                      A                      A                      A
 Frequencies --   1502.7014              1524.2789              1586.3229
 Red. masses --      2.0062                 2.1244                 5.1241
 Frc consts  --      2.6691                 2.9082                 7.5971
 IR Inten    --      0.4940                 5.1128                12.7516

                     34                     35                     36
                      A                      A                      A
 Frequencies --   1628.8303              3070.5233              3070.7469
 Red. masses --      5.5056                 1.0673                 1.0666
 Frc consts  --      8.6061                 5.9285                 5.9256
 IR Inten    --      1.2525                60.8320                58.1706

                     37                     38                     39
                      A                      A                      A
 Frequencies --   3172.5937              3174.9983              3191.5142
 Red. masses --      1.0882                 1.0889                 1.0926
 Frc consts  --      6.4535                 6.4676                 6.5571
 IR Inten    --     12.2832                 0.2266                 5.5965

                     40                     41                     42
                      A                      A                      A
 Frequencies --   3202.4906              3214.5003              3216.7649
 Red. masses --      1.0962                 1.0983                 1.0994
 Frc consts  --      6.6239                 6.6868                 6.7024
 IR Inten    --      0.0376                13.1450                 0.0012

 - Thermochemistry -
 -------------------
 Temperature   298.150 Kelvin.  Pressure   1.00000 Atm.
 Atom     1 has atomic number  1 and mass   1.00783

 Molecular mass:   104.06260 amu.
 Principal axes and moments of inertia in atomic units:
                           1         2         3
     Eigenvalues --   471.45944 812.584531241.43379
           X            0.47887   0.87350   0.08762
           Y            0.01302  -0.10687   0.99419
           Z            0.87779  -0.47495  -0.06255
 This molecule is an asymmetric top.
 Rotational symmetry number  1.
 Warning -- assumption of classical behavior for rotation
           may cause significant error
 Rotational temperatures (Kelvin)      0.18371     0.10659     0.06977
 Rotational constants (GHZ):           3.82799     2.22099     1.45376
    1 imaginary frequencies ignored.
 Zero-point vibrational energy     342778.7 (Joules/Mol)
                                   81.92608 (Kcal/Mol)
 Warning -- explicit consideration of   7 degrees of freedom as
           vibrations may cause significant error
 Vibrational temperatures:    322.20   322.43   571.21   621.19   747.99
          (Kelvin)            830.52   849.47   942.53   956.21  1075.54
                             1122.36  1171.92  1243.00  1250.71  1269.88
                             1281.42  1389.20  1457.73  1460.14  1466.33
                             1504.73  1652.80  1711.83  1778.67  1903.78
                             1911.76  1974.53  2117.45  2143.67  2162.05
                             2193.10  2282.36  2343.52  4417.80  4418.12
                             4564.65  4568.11  4591.88  4607.67  4624.95
                             4628.21

 Zero-point correction=                           0.130558 (Hartree/Particle)
 Thermal correction to Energy=                    0.136612
 Thermal correction to Enthalpy=                  0.137556
 Thermal correction to Gibbs Free Energy=         0.100756
 Sum of electronic and zero-point Energies=           -309.553482
 Sum of electronic and thermal Energies=              -309.547428
 Sum of electronic and thermal Enthalpies=            -309.546483
 Sum of electronic and thermal Free Energies=         -309.583283

                     E (Thermal)             CV                S
                      KCal/Mol        Cal/Mol-Kelvin    Cal/Mol-Kelvin
 Total                   85.725             25.043             77.452
 Electronic               0.000              0.000              0.000
 Translational            0.889              2.981             39.837
 Rotational               0.889              2.981             27.655
 Vibrational             83.948             19.082              9.960
 Vibration     1          0.649              1.805              1.927
 Vibration     2          0.649              1.804              1.926
 Vibration     3          0.764              1.477              0.974
 Vibration     4          0.793              1.401              0.853
 Vibration     5          0.875              1.206              0.610
 Vibration     6          0.934              1.080              0.491
 Vibration     7          0.948              1.052              0.466

 Optimization completed.
    -- Stationary point found.
 Normal termination of Gaussian 16 at Sat Jun 11 00:37:17 2022.
