 Gaussian 16, Revision A.03,
 Gaussian 16:  ES64L-G16RevA.03 25-Dec-2016

 ----------------------------------------------------------------------
 # Opt=(TS, CalcFC, noeigentest, Z-matrix, MaxStep=10) geom=allcheckpoi
 nt guess=read Field=read NoSymm B3LYP/Def2TZVP freq=noraman pop=none
 ----------------------------------------------------------------------

 Structure from the checkpoint file:  "checkpoint.chk"
 -----------------
 ts_zmat_initalOpt
 -----------------
 Charge =  0 Multiplicity = 1

 SCF Done:  E(RB3LYP) =  -309.681391622     A.U. after   11 cycles
 SCF Done:  E(RB3LYP) =  -309.681403020     A.U. after   10 cycles
 Optimization completed.
    -- Stationary point found.
 Normal termination of Gaussian 16 at Fri Jun 10 23:56:23 2022.

 --------------------------------------------------------------------
 #N Geom=AllCheck Guess=TCheck SCRF=Check GenChk RB3LYP/def2TZVP Freq
 --------------------------------------------------------------------

 Structure from the checkpoint file:  "checkpoint.chk"
 -----------------
 ts_zmat_initalOpt
 -----------------
 Charge =  0 Multiplicity = 1

                          Input orientation:
 ---------------------------------------------------------------------
 Center     Atomic      Atomic             Coordinates (Angstroms)
 Number     Number       Type             X           Y           Z
 ---------------------------------------------------------------------
      1          1           0        0.000000    0.000000    0.000000
      2          6           0        0.000000    0.000000    1.082358
      3          6           0        1.198355    0.000000    1.767691
      4          6           0       -1.239130   -0.052639    1.760366
      5          1           0        2.142223   -0.028295    1.236789
      6          6           0        1.133752   -0.076078    3.168926
      7          6           0       -1.309760   -0.019540    3.138645
      8          1           0       -2.149877   -0.079602    1.176147
      9          6           0        2.097264   -0.379134    4.178058
     10          6           0       -0.096795    0.090472    3.838707
     11          1           0       -2.266716    0.008118    3.645609
     12          1           0        1.921516   -1.244039    4.797908
     13          6           0        0.227745    0.431587    5.186617
     14          1           0        3.143375   -0.083561    4.094632
     15          1           0        0.832472    1.309185    5.351812
     16          1           0       -0.403508    0.148248    6.029178
 ---------------------------------------------------------------------

 SCF Done:  E(RB3LYP) =  -309.681403020     A.U. after    1 cycles

 Isotropic polarizability for W=    0.000000       98.56 Bohr**3.
 End of Minotr F.D. properties file   721 does not exist.

 ******    1 imaginary frequencies (negative Signs) ******

                      1                      2                      3
                      A                      A                      A
 Frequencies --   -625.7034               224.2584               224.6282
 Red. masses --      2.1723                 2.8596                 3.2350
 Frc consts  --      0.5011                 0.0847                 0.0962
 IR Inten    --     14.1368                 1.0350                 5.1618

                      4                      5                      6
                      A                      A                      A
 Frequencies --    397.1739               432.1535               522.0610
 Red. masses --      2.7559                 2.9888                 3.0802
 Frc consts  --      0.2561                 0.3289                 0.4946
 IR Inten    --      6.5894                 5.2726                 1.0253

                      7                      8                      9
                      A                      A                      A
 Frequencies --    577.4567               591.7280               653.9474
 Red. masses --      5.2365                 3.9582                 1.2819
 Frc consts  --      1.0288                 0.8166                 0.3230
 IR Inten    --      0.2724                 4.8197                16.6649

                     10                     11                     12
                      A                      A                      A
 Frequencies --    663.7122               747.2849               778.1724
 Red. masses --      1.1002                 3.1588                 1.2374
 Frc consts  --      0.2855                 1.0393                 0.4415
 IR Inten    --      2.5393                 5.3607                56.2782

                     13                     14                     15
                      A                      A                      A
 Frequencies --    815.0571               862.7049               872.5105
 Red. masses --      3.6977                 1.3038                 1.4739
 Frc consts  --      1.4473                 0.5717                 0.6611
 IR Inten    --      1.0873                14.4263                17.2733

                     16                     17                     18
                      A                      A                      A
 Frequencies --    883.6557               890.5709               960.8016
 Red. masses --      3.6917                 1.5804                 1.3482
 Frc consts  --      1.6984                 0.7385                 0.7333
 IR Inten    --      1.0267                41.1953                 4.9195

                     19                     20                     21
                      A                      A                      A
 Frequencies --   1006.5887              1012.1587              1017.7448
 Red. masses --      1.3418                 1.4591                 2.1158
 Frc consts  --      0.8010                 0.8807                 1.2912
 IR Inten    --      0.0884                 2.4102                 0.0819

                     22                     23                     24
                      A                      A                      A
 Frequencies --   1044.7491              1147.9045              1187.2804
 Red. masses --      1.5406                 1.5021                 1.1092
 Frc consts  --      0.9908                 1.1662                 0.9213
 IR Inten    --     10.3002                 1.1757                 0.0176

                     25                     26                     27
                      A                      A                      A
 Frequencies --   1237.3383              1323.8818              1330.7457
 Red. masses --      2.3493                 1.6673                 2.7714
 Frc consts  --      2.1192                 1.7217                 2.8916
 IR Inten    --      8.2461                 0.7652                 1.1083

                     28                     29                     30
                      A                      A                      A
 Frequencies --   1372.5643              1472.1279              1490.8017
 Red. masses --      4.1360                 1.3768                 1.5450
 Frc consts  --      4.5909                 1.7580                 2.0231
 IR Inten    --      0.6404                 8.7147                 5.2420

                     31                     32                     33
                      A                      A                      A
 Frequencies --   1504.4785              1525.2376              1586.2930
 Red. masses --      2.0290                 2.1235                 5.1377
 Frc consts  --      2.7059                 2.9106                 7.6171
 IR Inten    --      1.0400                 4.8544                10.1439

                     34                     35                     36
                      A                      A                      A
 Frequencies --   1630.8702              3081.1187              3081.3233
 Red. masses --      5.5509                 1.0658                 1.0671
 Frc consts  --      8.6987                 5.9614                 5.9692
 IR Inten    --      1.2562                45.9716                49.3566

                     37                     38                     39
                      A                      A                      A
 Frequencies --   3171.0564              3173.8456              3189.1028
 Red. masses --      1.0877                 1.0888                 1.0926
 Frc consts  --      6.4440                 6.4617                 6.5472
 IR Inten    --     10.5928                 0.0526                 9.4126

                     40                     41                     42
                      A                      A                      A
 Frequencies --   3200.5712              3221.2897              3223.2505
 Red. masses --      1.0961                 1.0994                 1.1003
 Frc consts  --      6.6156                 6.7217                 6.7353
 IR Inten    --      1.4465                 9.5178                 0.3410

 - Thermochemistry -
 -------------------
 Temperature   298.150 Kelvin.  Pressure   1.00000 Atm.
 Atom     1 has atomic number  1 and mass   1.00783

 Molecular mass:   104.06260 amu.
 Principal axes and moments of inertia in atomic units:
                           1         2         3
     Eigenvalues --   471.41824 812.219431240.62122
           X            0.47951   0.87303   0.08885
           Y            0.01414  -0.10892   0.99395
           Z            0.87742  -0.47535  -0.06457
 This molecule is an asymmetric top.
 Rotational symmetry number  1.
 Warning -- assumption of classical behavior for rotation
           may cause significant error
 Rotational temperatures (Kelvin)      0.18373     0.10664     0.06981
 Rotational constants (GHZ):           3.82832     2.22199     1.45471
    1 imaginary frequencies ignored.
 Zero-point vibrational energy     342910.8 (Joules/Mol)
                                   81.95764 (Kcal/Mol)
 Warning -- explicit consideration of   7 degrees of freedom as
           vibrations may cause significant error
 Vibrational temperatures:    322.66   323.19   571.44   621.77   751.13
          (Kelvin)            830.83   851.36   940.88   954.93  1075.18
                             1119.62  1172.69  1241.24  1255.35  1271.38
                             1281.33  1382.38  1448.26  1456.27  1464.31
                             1503.16  1651.58  1708.23  1780.25  1904.77
                             1914.65  1974.81  2118.06  2144.93  2164.61
                             2194.48  2282.32  2346.46  4433.04  4433.34
                             4562.44  4566.46  4588.41  4604.91  4634.72
                             4637.54

 Zero-point correction=                           0.130608 (Hartree/Particle)
 Thermal correction to Energy=                    0.136661
 Thermal correction to Enthalpy=                  0.137605
 Thermal correction to Gibbs Free Energy=         0.100810
 Sum of electronic and zero-point Energies=           -309.550795
 Sum of electronic and thermal Energies=              -309.544742
 Sum of electronic and thermal Enthalpies=            -309.543798
 Sum of electronic and thermal Free Energies=         -309.580593

                     E (Thermal)             CV                S
                      KCal/Mol        Cal/Mol-Kelvin    Cal/Mol-Kelvin
 Total                   85.756             25.053             77.443
 Electronic               0.000              0.000              0.000
 Translational            0.889              2.981             39.837
 Rotational               0.889              2.981             27.654
 Vibrational             83.979             19.091              9.952
 Vibration     1          0.649              1.804              1.924
 Vibration     2          0.649              1.804              1.921
 Vibration     3          0.764              1.476              0.973
 Vibration     4          0.793              1.400              0.852
 Vibration     5          0.877              1.201              0.605
 Vibration     6          0.934              1.080              0.490
 Vibration     7          0.949              1.049              0.464

 Optimization completed.
    -- Stationary point found.
 Normal termination of Gaussian 16 at Sat Jun 11 00:02:48 2022.
