 Gaussian 16, Revision A.03,
 Gaussian 16:  ES64L-G16RevA.03 25-Dec-2016

 --------------------------
 # sp B3LYP/Def2TZVP NoSymm
 --------------------------

 ----------------------------
 int_initalOpt_zmat_AlignedSp
 ----------------------------
 Symbolic Z-matrix:
 Charge =  0 Multiplicity = 1

                          Input orientation:
 ---------------------------------------------------------------------
 Center     Atomic      Atomic             Coordinates (Angstroms)
 Number     Number       Type             X           Y           Z
 ---------------------------------------------------------------------
      1          7           0        0.000000    0.000000    0.000000
      2          6           0        0.000000    0.000000    1.523873
      3          8           0        1.272670    0.000000   -0.476710
      4          6           0       -0.701693    1.239102   -0.463384
      5          6           0       -0.735898   -1.195667   -0.525714
      6          6           0        0.791862   -1.150139    2.109202
      7          1           0        0.466241    0.947783    1.786743
      8          1           0       -1.037595    0.006119    1.868522
      9          1           0       -0.678555    1.230045   -1.549168
     10          1           0       -0.126463    2.084984   -0.099019
     11          1           0       -1.728997    1.276910   -0.094438
     12          1           0       -0.179160   -2.078527   -0.231660
     13          1           0       -0.728776   -1.116144   -1.608695
     14          1           0       -1.758603   -1.232681   -0.144637
     15          1           0        1.760791   -1.202625    1.615043
     16          1           0        0.281028   -2.108220    2.004994
     17          1           0        0.943880   -0.972732    3.175151
 ---------------------------------------------------------------------

 SCF Done:  E(RB3LYP) =  -289.055059528     A.U. after   14 cycles

 Alpha  occ. eigenvalues --  -19.03522 -14.44916 -10.21460 -10.20814 -10.20792
 Alpha  occ. eigenvalues --  -10.16602  -1.05048  -0.82893  -0.77400  -0.73827
 Alpha  occ. eigenvalues --   -0.66879  -0.59423  -0.51491  -0.50265  -0.48070
 Alpha  occ. eigenvalues --   -0.45346  -0.43060  -0.41428  -0.39619  -0.39314
 Alpha  occ. eigenvalues --   -0.37908  -0.36887  -0.35857  -0.20540  -0.20407
 Alpha virt. eigenvalues --    0.01807   0.05308   0.06447   0.06523   0.07643
 Alpha virt. eigenvalues --    0.08735   0.08947   0.10771   0.11731   0.12988
 Alpha virt. eigenvalues --    0.13659   0.14187   0.15180   0.15823   0.18556

 Mulliken charges:
               1
     1  N    0.270534
     2  C   -0.083315
     3  O   -0.627480
     4  C   -0.242018
     5  C   -0.271986
     6  C   -0.368421
     7  H    0.106209
     8  H    0.092156
     9  H    0.133227
    10  H    0.132808
    11  H    0.102783
    12  H    0.144284
    13  H    0.133736
    14  H    0.105239
    15  H    0.156984
    16  H    0.103410
    17  H    0.111850
 Sum of Mulliken charges =  -0.00000

 Dipole moment (field-independent basis, Debye):
    X=             -4.1563    Y=             -0.0493    Z=              1.6778  Tot=              4.4825
 Quadrupole moment (field-independent basis, Debye-Ang):
   XX=            -43.7895   YY=            -36.7439   ZZ=            -37.5331
   XY=             -0.0845   XZ=              3.1646   YZ=              0.0670

 1\1\GINC-BHC0021\SP\RB3LYP\def2TZVP\C4H11N1O1\DHANAWAY\10-Jun-2022\0\\
 # sp B3LYP/Def2TZVP NoSymm\\int_initalOpt_zmat_AlignedSp\\0,1\N\C,1,1.
 52387276\O,1,1.35902239,2,110.53467215\C,1,1.497488,2,108.0255359,3,-1
 19.52251189,0\C,1,1.4991802,2,110.52817452,3,121.61105846,0\C,2,1.5140
 9213,1,112.74231861,3,-55.45287196,0\H,2,1.08847311,1,103.97532594,6,1
 19.25898976,0\H,2,1.09335457,1,108.37418979,6,-124.88503697,0\H,4,1.08
 606805,1,107.0063007,2,179.13547068,0\H,4,1.08589444,1,107.00844397,9,
 -117.07521601,0\H,4,1.09220162,1,111.39844539,9,121.46539599,0\H,5,1.0

 Normal termination of Gaussian 16 at Fri Jun 10 10:59:41 2022.
