 Gaussian 16, Revision A.03,
 Gaussian 16:  ES64L-G16RevA.03 25-Dec-2016

 --------------------------
 # sp B3LYP/Def2TZVP NoSymm
 --------------------------

 ---------------------------------
 ts_initalOptXYZ_aligned_AlignedSp
 ---------------------------------
 Symbolic Z-matrix:
 Charge =  0 Multiplicity = 1

                          Input orientation:
 ---------------------------------------------------------------------
 Center     Atomic      Atomic             Coordinates (Angstroms)
 Number     Number       Type             X           Y           Z
 ---------------------------------------------------------------------
      1          6           0       -0.251628   -0.809318   -0.401129
      2          6           0       -1.444859   -0.558768   -0.128705
      3          1           0       -1.507793    0.858135    0.038500
      4          6           0       -2.778198   -1.119334    0.199258
      5          1           0       -2.754629   -2.209436    0.261785
      6          1           0       -3.516732   -0.836641   -0.554928
      7          1           0       -3.135922   -0.727769    1.154773
      8          6           0        0.942963   -1.662272   -0.387052
      9          8           0        1.984500   -1.061063    0.393068
     10          1           0        1.314300   -1.852471   -1.400362
     11          1           0        0.706801   -2.626786    0.073993
     12          6           0        1.731886    0.321276    0.679964
     13          6           0        1.043382    0.955787   -0.490544
     14          1           0        2.720453    0.759907    0.837102
     15          1           0        1.157643    0.429286    1.605896
     16          6           0        0.091833    1.953960   -0.516270
     17          1           0        1.632430    0.854618   -1.400203
     18          6           0       -0.986290    2.042385    0.386488
     19          1           0       -0.047364    2.446705   -1.474173
     20          1           0       -0.822468    1.822829    1.437635
     21          1           0       -1.717252    2.827837    0.223385
 ---------------------------------------------------------------------

 SCF Done:  E(RB3LYP) =  -387.287092866     A.U. after   14 cycles

 Alpha  occ. eigenvalues --  -19.12393 -10.23203 -10.21739 -10.18669 -10.18060
 Alpha  occ. eigenvalues --  -10.17854 -10.17434 -10.17270 -10.17202  -1.02972
 Alpha  occ. eigenvalues --   -0.81625  -0.78807  -0.74093  -0.72010  -0.67378
 Alpha  occ. eigenvalues --   -0.62652  -0.54638  -0.51817  -0.50439  -0.47054
 Alpha  occ. eigenvalues --   -0.46041  -0.45696  -0.43770  -0.42776  -0.42261
 Alpha  occ. eigenvalues --   -0.40561  -0.39097  -0.37860  -0.36140  -0.32550
 Alpha  occ. eigenvalues --   -0.27330  -0.26575  -0.25257  -0.22952
 Alpha virt. eigenvalues --   -0.01998   0.01430   0.02566   0.03597   0.05248
 Alpha virt. eigenvalues --    0.06212   0.07183   0.09067   0.09704   0.10138
 Alpha virt. eigenvalues --    0.11045   0.11751   0.12720   0.13050   0.14145

 Mulliken charges:
               1
     1  C   -0.107723
     2  C   -0.128736
     3  H    0.173920
     4  C   -0.321774
     5  H    0.121284
     6  H    0.129661
     7  H    0.123669
     8  C    0.059377
     9  O   -0.321548
    10  H    0.089629
    11  H    0.097193
    12  C    0.059869
    13  C   -0.172775
    14  H    0.097969
    15  H    0.067903
    16  C   -0.045535
    17  H    0.093565
    18  C   -0.355962
    19  H    0.097587
    20  H    0.123764
    21  H    0.118664
 Sum of Mulliken charges =  -0.00000

 Dipole moment (field-independent basis, Debye):
    X=             -1.7959    Y=              0.2093    Z=             -0.2032  Tot=              1.8194
 Quadrupole moment (field-independent basis, Debye-Ang):
   XX=            -56.1889   YY=            -55.5802   ZZ=            -55.2576
   XY=              2.1501   XZ=             -2.3136   YZ=              0.6806

 Normal termination of Gaussian 16 at Fri Jun 10 11:18:28 2022.
