 Gaussian 16, Revision A.03,
 Gaussian 16:  ES64L-G16RevA.03 25-Dec-2016

 -------------------------------------------------------------
 # Opt=(Z-matrix, MaxStep=10) B3LYP/Def2TZVP Field=read NoSymm
 -------------------------------------------------------------

 ------------------
 int_zmat_initalOpt
 ------------------
 Symbolic Z-matrix:
 Charge =  0 Multiplicity = 1

 SCF Done:  E(RB3LYP) =  -269.422767123     A.U. after   13 cycles
 SCF Done:  E(RB3LYP) =  -269.422784993     A.U. after    8 cycles
 SCF Done:  E(RB3LYP) =  -269.422790886     A.U. after    8 cycles
 Optimization completed.
    -- Stationary point found.

                         Z-Matrix orientation:
 ---------------------------------------------------------------------
 Center     Atomic      Atomic             Coordinates (Angstroms)
 Number     Number       Type             X           Y           Z
 ---------------------------------------------------------------------
      1          1           0        0.000000    0.000000    0.000000
      2          6           0        0.000000    0.000000    1.079860
      3          6           0        1.163844    0.000000    1.746383
      4          6           0       -1.224302    0.190601    1.840782
      5          1           0        2.137513    0.049530    1.276230
      6          8           0        1.246758    0.046095    3.097026
      7          6           0       -1.194425    0.052692    3.169567
      8          1           0       -2.121640    0.514215    1.328487
      9          6           0        0.078791   -0.426962    3.802769
     10          1           0       -2.050614    0.259337    3.797993
     11          1           0        0.194215   -0.068704    4.824416
     12          1           0        0.123555   -1.528415    3.817830
 ---------------------------------------------------------------------

 Alpha  occ. eigenvalues --  -19.16198 -10.23346 -10.23132 -10.17701 -10.17121
 Alpha  occ. eigenvalues --  -10.16663  -1.07110  -0.81301  -0.77476  -0.66533
 Alpha  occ. eigenvalues --   -0.62603  -0.53356  -0.51132  -0.48536  -0.46315
 Alpha  occ. eigenvalues --   -0.43756  -0.40914  -0.37787  -0.36092  -0.33065
 Alpha  occ. eigenvalues --   -0.30089  -0.21084
 Alpha virt. eigenvalues --   -0.03286   0.04598   0.05569   0.07566   0.07895
 Alpha virt. eigenvalues --    0.09366   0.09867   0.10925   0.12982   0.16190
 Alpha virt. eigenvalues --    0.17747   0.19440   0.21437   0.22441   0.22672

 Mulliken charges:
               1
     1  H    0.112515
     2  C   -0.167687
     3  C    0.025039
     4  C   -0.093076
     5  H    0.114436
     6  O   -0.272045
     7  C   -0.178027
     8  H    0.122909
     9  C    0.039896
    10  H    0.121124
    11  H    0.111911
    12  H    0.063005
 Sum of Mulliken charges =  -0.00000

 Dipole moment (field-independent basis, Debye):
    X=             -0.8940    Y=              0.0002    Z=             -0.0345  Tot=              0.8947
 Quadrupole moment (field-independent basis, Debye-Ang):
   XX=            -34.8513   YY=            -38.2626   ZZ=            -32.0911
   XY=             -0.9043   XZ=             -4.1893   YZ=             -1.0093

 Normal termination of Gaussian 16 at Mon Mar 21 07:56:41 2022.
