 Gaussian 16, Revision A.03,
 Gaussian 16:  ES64L-G16RevA.03 25-Dec-2016

 ----------------------------------------------------------------------
 # Opt=(Z-matrix, MaxStep=10) B3LYP/Def2TZVP geom=allcheckpoint guess=r
 ead Field=read NoSymm
 ----------------------------------------------------------------------

 Structure from the checkpoint file:  "checkpoint.chk"
 ------------------
 int_zmat_initalOpt
 ------------------
 Charge =  0 Multiplicity = 1

 SCF Done:  E(RB3LYP) =  -269.424433280     A.U. after   10 cycles
 SCF Done:  E(RB3LYP) =  -269.424450804     A.U. after    9 cycles
 SCF Done:  E(RB3LYP) =  -269.424458349     A.U. after    9 cycles
 SCF Done:  E(RB3LYP) =  -269.424458764     A.U. after    7 cycles
 Optimization completed.
    -- Stationary point found.

                         Z-Matrix orientation:
 ---------------------------------------------------------------------
 Center     Atomic      Atomic             Coordinates (Angstroms)
 Number     Number       Type             X           Y           Z
 ---------------------------------------------------------------------
      1          1           0        0.000000    0.000000    0.000000
      2          6           0        0.000000    0.000000    1.080100
      3          6           0        1.165421    0.000000    1.743103
      4          6           0       -1.217864    0.250092    1.835959
      5          1           0        2.137515    0.032701    1.267615
      6          8           0        1.259489    0.073815    3.091918
      7          6           0       -1.185845    0.167660    3.168604
      8          1           0       -2.104618    0.587035    1.314622
      9          6           0        0.074493   -0.315989    3.822569
     10          1           0       -2.029265    0.438394    3.789592
     11          1           0        0.203080    0.095544    4.822422
     12          1           0        0.084364   -1.417342    3.900012
 ---------------------------------------------------------------------

 Alpha  occ. eigenvalues --  -19.16330 -10.23418 -10.23226 -10.17194 -10.16675
 Alpha  occ. eigenvalues --  -10.16664  -1.07175  -0.81031  -0.77492  -0.66415
 Alpha  occ. eigenvalues --   -0.62487  -0.53245  -0.50962  -0.48460  -0.46265
 Alpha  occ. eigenvalues --   -0.43533  -0.40764  -0.37610  -0.36044  -0.33000
 Alpha  occ. eigenvalues --   -0.29980  -0.20924
 Alpha virt. eigenvalues --   -0.03068   0.04208   0.05453   0.07679   0.07924
 Alpha virt. eigenvalues --    0.09536   0.09706   0.11437   0.13871   0.16295
 Alpha virt. eigenvalues --    0.17649   0.19372   0.21250   0.22349   0.23219

 Mulliken charges:
               1
     1  H    0.114098
     2  C   -0.169437
     3  C    0.022314
     4  C   -0.101671
     5  H    0.100194
     6  O   -0.276018
     7  C   -0.178567
     8  H    0.144002
     9  C    0.046287
    10  H    0.140524
    11  H    0.120843
    12  H    0.037431
 Sum of Mulliken charges =  -0.00000

 Dipole moment (field-independent basis, Debye):
    X=             -1.3707    Y=              0.5934    Z=              0.0092  Tot=              1.4937
 Quadrupole moment (field-independent basis, Debye-Ang):
   XX=            -34.8144   YY=            -38.3401   ZZ=            -31.7958
   XY=             -1.1712   XZ=             -5.2826   YZ=              0.7317

 Normal termination of Gaussian 16 at Mon Mar 21 08:07:07 2022.
