 Gaussian 16, Revision A.03,
 Gaussian 16:  ES64L-G16RevA.03 25-Dec-2016

 ----------------------------------------------------------------------
 # Opt=(Z-matrix, MaxStep=10) B3LYP/Def2TZVP geom=allcheckpoint guess=r
 ead Field=read NoSymm
 ----------------------------------------------------------------------

 Structure from the checkpoint file:  "checkpoint.chk"
 ------------------
 int_zmat_initalOpt
 ------------------
 Charge =  0 Multiplicity = 1

 SCF Done:  E(RB3LYP) =  -269.423413067     A.U. after   10 cycles
 SCF Done:  E(RB3LYP) =  -269.423431407     A.U. after    8 cycles
 SCF Done:  E(RB3LYP) =  -269.423438951     A.U. after    8 cycles
 SCF Done:  E(RB3LYP) =  -269.423439309     A.U. after    7 cycles
 Optimization completed.
    -- Stationary point found.

                         Z-Matrix orientation:
 ---------------------------------------------------------------------
 Center     Atomic      Atomic             Coordinates (Angstroms)
 Number     Number       Type             X           Y           Z
 ---------------------------------------------------------------------
      1          1           0        0.000000    0.000000    0.000000
      2          6           0        0.000000    0.000000    1.079960
      3          6           0        1.164623    0.000000    1.744751
      4          6           0       -1.221172    0.220819    1.838599
      5          1           0        2.137572    0.040995    1.272014
      6          8           0        1.253172    0.059774    3.094468
      7          6           0       -1.190572    0.110506    3.169570
      8          1           0       -2.113119    0.551422    1.321779
      9          6           0        0.076191   -0.371523    3.813179
     10          1           0       -2.040511    0.349802    3.794691
     11          1           0        0.198114    0.013540    4.824327
     12          1           0        0.103418   -1.473438    3.859384
 ---------------------------------------------------------------------

 Alpha  occ. eigenvalues --  -19.16272 -10.23397 -10.23183 -10.17457 -10.16908
 Alpha  occ. eigenvalues --  -10.16666  -1.07155  -0.81174  -0.77493  -0.66485
 Alpha  occ. eigenvalues --   -0.62553  -0.53308  -0.51059  -0.48506  -0.46303
 Alpha  occ. eigenvalues --   -0.43654  -0.40849  -0.37704  -0.36082  -0.33044
 Alpha  occ. eigenvalues --   -0.30047  -0.21010
 Alpha virt. eigenvalues --   -0.03181   0.04441   0.05551   0.07613   0.07908
 Alpha virt. eigenvalues --    0.09464   0.09738   0.11108   0.13424   0.16216
 Alpha virt. eigenvalues --    0.17695   0.19456   0.21306   0.22372   0.22917

 Mulliken charges:
               1
     1  H    0.113074
     2  C   -0.168462
     3  C    0.024027
     4  C   -0.097340
     5  H    0.107441
     6  O   -0.273946
     7  C   -0.178380
     8  H    0.133558
     9  C    0.043218
    10  H    0.130583
    11  H    0.116117
    12  H    0.050111
 Sum of Mulliken charges =  -0.00000

 Dipole moment (field-independent basis, Debye):
    X=             -1.1311    Y=              0.2960    Z=             -0.0144  Tot=              1.1693
 Quadrupole moment (field-independent basis, Debye-Ang):
   XX=            -34.8279   YY=            -38.3197   ZZ=            -31.9479
   XY=             -1.0339   XZ=             -4.7341   YZ=             -0.1425

 Normal termination of Gaussian 16 at Mon Mar 21 07:58:36 2022.
