 Gaussian 16, Revision A.03,
 Gaussian 16:  ES64L-G16RevA.03 25-Dec-2016

 --------------------------
 # sp B3LYP/Def2TZVP NoSymm
 --------------------------

 ----------------------------
 int_initalOpt_zmat_AlignedSp
 ----------------------------
 Symbolic Z-matrix:
 Charge =  0 Multiplicity = 1

                          Input orientation:
 ---------------------------------------------------------------------
 Center     Atomic      Atomic             Coordinates (Angstroms)
 Number     Number       Type             X           Y           Z
 ---------------------------------------------------------------------
      1          1           0        0.000000    0.000000    0.000000
      2          6           0        0.000000    0.000000    1.079792
      3          6           0        1.163530    0.000000    1.747690
      4          6           0       -1.226227    0.164297    1.843012
      5          1           0        2.137904    0.055875    1.279696
      6          8           0        1.242300    0.033066    3.098293
      7          6           0       -1.196564    0.001488    3.169324
      8          1           0       -2.128856    0.480171    1.334597
      9          6           0        0.082711   -0.475862    3.793051
     10          1           0       -2.057969    0.178170    3.800074
     11          1           0        0.194308   -0.141206    4.823088
     12          1           0        0.143676   -1.575616    3.780833
 ---------------------------------------------------------------------

 SCF Done:  E(RB3LYP) =  -269.422510324     A.U. after   13 cycles

 Alpha  occ. eigenvalues --  -19.16116 -10.23274 -10.23078 -10.17926 -10.17313
 Alpha  occ. eigenvalues --  -10.16645  -1.07060  -0.81408  -0.77439  -0.66565
 Alpha  occ. eigenvalues --   -0.62635  -0.53389  -0.51176  -0.48548  -0.46309
 Alpha  occ. eigenvalues --   -0.43838  -0.40954  -0.37855  -0.36089  -0.33068
 Alpha  occ. eigenvalues --   -0.30118  -0.21129
 Alpha virt. eigenvalues --   -0.03376   0.04616   0.05587   0.07510   0.07893
 Alpha virt. eigenvalues --    0.09293   0.10034   0.10888   0.12582   0.16187
 Alpha virt. eigenvalues --    0.17805   0.19367   0.21561   0.22452   0.22634

 Mulliken charges:
               1
     1  H    0.112382
     2  C   -0.168004
     3  C    0.026105
     4  C   -0.088563
     5  H    0.121115
     6  O   -0.270098
     7  C   -0.177929
     8  H    0.112035
     9  C    0.036001
    10  H    0.112303
    11  H    0.108343
    12  H    0.076311
 Sum of Mulliken charges =  -0.00000

 Dipole moment (field-independent basis, Debye):
    X=             -0.6572    Y=             -0.2887    Z=             -0.0449  Tot=              0.7192
 Quadrupole moment (field-independent basis, Debye-Ang):
   XX=            -34.8905   YY=            -38.1711   ZZ=            -32.1896
   XY=             -0.7938   XZ=             -3.6368   YZ=             -1.8401

 Normal termination of Gaussian 16 at Mon Mar 21 07:49:52 2022.
