 Gaussian 16, Revision A.03,
 Gaussian 16:  ES64L-G16RevA.03 25-Dec-2016

 ----------------------------------------------------------------------
 # Opt=(TS, CalcFC, noeigentest, Z-matrix, MaxStep=10) geom=allcheckpoi
 nt guess=read Field=read NoSymm B3LYP/Def2TZVP
 ----------------------------------------------------------------------

 Structure from the checkpoint file:  "checkpoint.chk"
 -----------------
 ts_zmat_initalOpt
 -----------------
 Charge =  0 Multiplicity = 1

 SCF Done:  E(RB3LYP) =  -269.398129082     A.U. after   10 cycles

  Exact polarizability:   0.000   0.000   0.000   0.000   0.000   0.000
 Approx polarizability: 134.318 -14.041  67.461  -4.657  -3.718 129.138

 SCF Done:  E(RB3LYP) =  -269.398151655     A.U. after   11 cycles
 Optimization completed.
    -- Stationary point found.

                         Z-Matrix orientation:
 ---------------------------------------------------------------------
 Center     Atomic      Atomic             Coordinates (Angstroms)
 Number     Number       Type             X           Y           Z
 ---------------------------------------------------------------------
      1          1           0        0.000000    0.000000    0.000000
      2          6           0        0.000000    0.000000    1.080868
      3          6           0        1.247334    0.000000    1.718406
      4          6           0       -1.133573    0.451087    1.776065
      5          1           0        2.109490    0.217241    1.076187
      6          8           0        1.500548   -0.063807    2.962628
      7          6           0       -1.145859    0.473581    3.159556
      8          1           0       -1.924083    0.933601    1.210962
      9          6           0       -0.234080   -0.356224    3.812208
     10          1           0       -1.753116    1.184399    3.705306
     11          1           0       -0.016833   -0.215445    4.864233
     12          1           0       -0.121818   -1.371244    3.455991
 ---------------------------------------------------------------------

 Alpha  occ. eigenvalues --  -19.16706 -10.27417 -10.24639 -10.21261 -10.18852
 Alpha  occ. eigenvalues --  -10.18735  -1.06699  -0.84782  -0.77804  -0.68830
 Alpha  occ. eigenvalues --   -0.62930  -0.54771  -0.53050  -0.49152  -0.48126
 Alpha  occ. eigenvalues --   -0.46457  -0.41602  -0.40189  -0.39487  -0.35148
 Alpha  occ. eigenvalues --   -0.30939  -0.23521
 Alpha virt. eigenvalues --   -0.09154  -0.01847   0.02422   0.03114   0.04952
 Alpha virt. eigenvalues --    0.06039   0.08243   0.09205   0.11626   0.12947
 Alpha virt. eigenvalues --    0.15363   0.17698   0.18608   0.20422   0.20489

 Mulliken charges:
               1
     1  H    0.129301
     2  C   -0.255651
     3  C    0.158787
     4  C   -0.015248
     5  H    0.083443
     6  O   -0.349936
     7  C   -0.184635
     8  H    0.150649
     9  C   -0.070098
    10  H    0.106498
    11  H    0.096890
    12  H    0.149998
 Sum of Mulliken charges =  -0.00000

 Dipole moment (field-independent basis, Debye):
    X=             -2.3351    Y=             -0.0932    Z=             -1.2359  Tot=              2.6436
 Quadrupole moment (field-independent basis, Debye-Ang):
   XX=            -37.3908   YY=            -36.5644   ZZ=            -37.7934
   XY=             -1.6725   XZ=             -7.7537   YZ=             -1.1825

 Normal termination of Gaussian 16 at Mon Mar 21 08:39:00 2022.
