 Gaussian 16, Revision A.03,
 Gaussian 16:  ES64L-G16RevA.03 25-Dec-2016

 ----------------------------------------------------------------------
 # Opt=(TS, CalcFC, noeigentest, Z-matrix, MaxStep=10) Field=read NoSym
 m B3LYP/Def2TZVP
 ----------------------------------------------------------------------

 -----------------
 ts_zmat_initalOpt
 -----------------
 Symbolic Z-matrix:
 Charge =  0 Multiplicity = 1

 SCF Done:  E(RB3LYP) =  -269.392748279     A.U. after   14 cycles

  Exact polarizability:   0.000   0.000   0.000   0.000   0.000   0.000
 Approx polarizability: 132.502 -15.700  68.593  -4.863  -1.809 130.911

 SCF Done:  E(RB3LYP) =  -269.392762357     A.U. after   10 cycles
 Optimization completed.
    -- Stationary point found.

                         Z-Matrix orientation:
 ---------------------------------------------------------------------
 Center     Atomic      Atomic             Coordinates (Angstroms)
 Number     Number       Type             X           Y           Z
 ---------------------------------------------------------------------
      1          1           0        0.000000    0.000000    0.000000
      2          6           0        0.000000    0.000000    1.081339
      3          6           0        1.261356    0.000000    1.711292
      4          6           0       -1.107178    0.503698    1.774772
      5          1           0        2.117937    0.208196    1.058698
      6          8           0        1.516515   -0.060249    2.943950
      7          6           0       -1.109194    0.565289    3.161003
      8          1           0       -1.883214    1.006470    1.205847
      9          6           0       -0.223405   -0.270085    3.836497
     10          1           0       -1.659160    1.338693    3.682520
     11          1           0        0.018953   -0.094860    4.877077
     12          1           0       -0.136823   -1.297927    3.512303
 ---------------------------------------------------------------------

 Alpha  occ. eigenvalues --  -19.14849 -10.25777 -10.22687 -10.20103 -10.17596
 Alpha  occ. eigenvalues --  -10.17300  -1.05213  -0.83371  -0.76213  -0.67259
 Alpha  occ. eigenvalues --   -0.61313  -0.53248  -0.51505  -0.47572  -0.46499
 Alpha  occ. eigenvalues --   -0.44799  -0.40197  -0.38709  -0.38096  -0.33233
 Alpha  occ. eigenvalues --   -0.29446  -0.22026
 Alpha virt. eigenvalues --   -0.07432  -0.00407   0.04225   0.05028   0.06794
 Alpha virt. eigenvalues --    0.07416   0.09088   0.10856   0.12024   0.15121
 Alpha virt. eigenvalues --    0.17427   0.19352   0.19820   0.21355   0.21617

 Mulliken charges:
               1
     1  H    0.107651
     2  C   -0.258196
     3  C    0.160993
     4  C   -0.017880
     5  H    0.104291
     6  O   -0.310106
     7  C   -0.192809
     8  H    0.123922
     9  C   -0.086338
    10  H    0.107829
    11  H    0.124819
    12  H    0.135823
 Sum of Mulliken charges =  -0.00000

 Dipole moment (field-independent basis, Debye):
    X=             -1.2262    Y=              0.2281    Z=             -0.7084  Tot=              1.4344
 Quadrupole moment (field-independent basis, Debye-Ang):
   XX=            -37.5534   YY=            -36.4577   ZZ=            -35.2955
   XY=             -1.5689   XZ=             -5.1995   YZ=             -0.2385

 Normal termination of Gaussian 16 at Mon Mar 21 07:58:45 2022.
