 Gaussian 16, Revision A.03,
 Gaussian 16:  ES64L-G16RevA.03 25-Dec-2016

 ----------------------------------------------------------------------
 # Opt=(TS, CalcFC, noeigentest, Z-matrix, MaxStep=10) geom=allcheckpoi
 nt guess=read Field=read NoSymm B3LYP/Def2TZVP
 ----------------------------------------------------------------------

 Structure from the checkpoint file:  "checkpoint.chk"
 -----------------
 ts_zmat_initalOpt
 -----------------
 Charge =  0 Multiplicity = 1

 SCF Done:  E(RB3LYP) =  -269.394132288     A.U. after   10 cycles

  Exact polarizability:   0.000   0.000   0.000   0.000   0.000   0.000
 Approx polarizability: 133.048 -15.211  68.212  -4.823  -2.381 130.297

 SCF Done:  E(RB3LYP) =  -269.394149868     A.U. after   11 cycles
 Optimization completed.
    -- Stationary point found.

                         Z-Matrix orientation:
 ---------------------------------------------------------------------
 Center     Atomic      Atomic             Coordinates (Angstroms)
 Number     Number       Type             X           Y           Z
 ---------------------------------------------------------------------
      1          1           0        0.000000    0.000000    0.000000
      2          6           0        0.000000    0.000000    1.081144
      3          6           0        1.256772    0.000000    1.713260
      4          6           0       -1.115303    0.487744    1.775555
      5          1           0        2.115042    0.210943    1.063852
      6          8           0        1.511592   -0.061309    2.949601
      7          6           0       -1.120221    0.537010    3.160956
      8          1           0       -1.895953    0.984327    1.208098
      9          6           0       -0.226171   -0.297221    3.828672
     10          1           0       -1.688495    1.291050    3.690874
     11          1           0        0.008183   -0.133175    4.873110
     12          1           0       -0.132314   -1.321235    3.494200
 ---------------------------------------------------------------------

 Alpha  occ. eigenvalues --  -19.15478 -10.26331 -10.23343 -10.20491 -10.18014
 Alpha  occ. eigenvalues --  -10.17785  -1.05723  -0.83848  -0.76751  -0.67788
 Alpha  occ. eigenvalues --   -0.61862  -0.53764  -0.52026  -0.48107  -0.47050
 Alpha  occ. eigenvalues --   -0.45365  -0.40674  -0.39211  -0.38573  -0.33875
 Alpha  occ. eigenvalues --   -0.29956  -0.22527
 Alpha virt. eigenvalues --   -0.08002  -0.00889   0.03739   0.04441   0.06160
 Alpha virt. eigenvalues --    0.06924   0.08757   0.10259   0.11879   0.14365
 Alpha virt. eigenvalues --    0.16734   0.18920   0.19301   0.21071   0.21221

 Mulliken charges:
               1
     1  H    0.114799
     2  C   -0.257646
     3  C    0.160565
     4  C   -0.016560
     5  H    0.097625
     6  O   -0.323066
     7  C   -0.190057
     8  H    0.132908
     9  C   -0.080902
    10  H    0.106496
    11  H    0.115378
    12  H    0.140461
 Sum of Mulliken charges =  -0.00000

 Dipole moment (field-independent basis, Debye):
    X=             -1.5896    Y=              0.1238    Z=             -0.8865  Tot=              1.8243
 Quadrupole moment (field-independent basis, Debye-Ang):
   XX=            -37.5059   YY=            -36.4950   ZZ=            -36.1355
   XY=             -1.6129   XZ=             -6.0327   YZ=             -0.5491

 Normal termination of Gaussian 16 at Mon Mar 21 08:09:57 2022.
