 Gaussian 16, Revision A.03,
 Gaussian 16:  ES64L-G16RevA.03 25-Dec-2016

 ----------------------------------------------------------------------
 # Opt=(TS, CalcFC, noeigentest, Z-matrix, MaxStep=10) geom=allcheckpoi
 nt guess=read Field=read NoSymm B3LYP/Def2TZVP
 ----------------------------------------------------------------------

 Structure from the checkpoint file:  "checkpoint.chk"
 -----------------
 ts_zmat_initalOpt
 -----------------
 Charge =  0 Multiplicity = 1

 SCF Done:  E(RB3LYP) =  -269.395924646     A.U. after   10 cycles

  Exact polarizability:   0.000   0.000   0.000   0.000   0.000   0.000
 Approx polarizability: 133.663 -14.652  67.830  -4.760  -3.032 129.708

 SCF Done:  E(RB3LYP) =  -269.395944647     A.U. after   11 cycles
 Optimization completed.
    -- Stationary point found.

                         Z-Matrix orientation:
 ---------------------------------------------------------------------
 Center     Atomic      Atomic             Coordinates (Angstroms)
 Number     Number       Type             X           Y           Z
 ---------------------------------------------------------------------
      1          1           0        0.000000    0.000000    0.000000
      2          6           0        0.000000    0.000000    1.080987
      3          6           0        1.252114    0.000000    1.715609
      4          6           0       -1.124097    0.470234    1.776013
      5          1           0        2.112228    0.213955    1.069638
      6          8           0        1.506312   -0.062488    2.955797
      7          6           0       -1.132418    0.506506    3.160510
      8          1           0       -1.909586    0.960063    1.209841
      9          6           0       -0.229708   -0.325872    3.820613
     10          1           0       -1.719790    1.239731    3.698523
     11          1           0       -0.003714   -0.173278    4.868866
     12          1           0       -0.127308   -1.345637    3.475486
 ---------------------------------------------------------------------

 Alpha  occ. eigenvalues --  -19.16097 -10.26878 -10.23994 -10.20878 -10.18433
 Alpha  occ. eigenvalues --  -10.18264  -1.06219  -0.84319  -0.77282  -0.68312
 Alpha  occ. eigenvalues --   -0.62402  -0.54272  -0.52541  -0.48634  -0.47593
 Alpha  occ. eigenvalues --   -0.45918  -0.41143  -0.39705  -0.39036  -0.34514
 Alpha  occ. eigenvalues --   -0.30453  -0.23026
 Alpha virt. eigenvalues --   -0.08577  -0.01369   0.03132   0.03807   0.05534
 Alpha virt. eigenvalues --    0.06467   0.08483   0.09704   0.11762   0.13630
 Alpha virt. eigenvalues --    0.16042   0.18336   0.18929   0.20778   0.20831

 Mulliken charges:
               1
     1  H    0.122013
     2  C   -0.256798
     3  C    0.159840
     4  C   -0.015674
     5  H    0.090687
     6  O   -0.336337
     7  C   -0.187331
     8  H    0.141817
     9  C   -0.075490
    10  H    0.106020
    11  H    0.106056
    12  H    0.145195
 Sum of Mulliken charges =  -0.00000

 Dipole moment (field-independent basis, Debye):
    X=             -1.9590    Y=              0.0169    Z=             -1.0623  Tot=              2.2286
 Quadrupole moment (field-independent basis, Debye-Ang):
   XX=            -37.4523   YY=            -36.5308   ZZ=            -36.9682
   XY=             -1.6480   XZ=             -6.8837   YZ=             -0.8633

 Normal termination of Gaussian 16 at Mon Mar 21 08:25:59 2022.
