 Gaussian 16, Revision A.03,
 Gaussian 16:  ES64L-G16RevA.03 25-Dec-2016

 ----------------------------------------------------------------------
 # Opt=(TS, CalcFC, noeigentest, Z-matrix, MaxStep=10) geom=allcheckpoi
 nt guess=read Field=read NoSymm B3LYP/Def2TZVP freq=noraman pop=none
 ----------------------------------------------------------------------

 Structure from the checkpoint file:  "checkpoint.chk"
 -----------------
 ts_zmat_initalOpt
 -----------------
 Charge =  0 Multiplicity = 1

 SCF Done:  E(RB3LYP) =  -387.294664316     A.U. after   11 cycles
 SCF Done:  E(RB3LYP) =  -387.294694737     A.U. after   11 cycles
 Optimization completed.
    -- Stationary point found.
 Normal termination of Gaussian 16 at Fri Jun 10 13:14:49 2022.

 --------------------------------------------------------------------
 #N Geom=AllCheck Guess=TCheck SCRF=Check GenChk RB3LYP/def2TZVP Freq
 --------------------------------------------------------------------

 Structure from the checkpoint file:  "checkpoint.chk"
 -----------------
 ts_zmat_initalOpt
 -----------------
 Charge =  0 Multiplicity = 1

                          Input orientation:
 ---------------------------------------------------------------------
 Center     Atomic      Atomic             Coordinates (Angstroms)
 Number     Number       Type             X           Y           Z
 ---------------------------------------------------------------------
      1          6           0        0.000000    0.000000    0.000000
      2          6           0        0.000000    0.000000    1.249243
      3          6           0        0.637051    0.000000   -1.317933
      4          6           0        0.714025   -0.394750    2.489860
      5          8           0        0.388072    1.247282   -2.003129
      6          1           0        0.280902   -0.826760   -1.940632
      7          1           0        1.721539   -0.094844   -1.212318
      8          1           0        1.700751   -0.803998    2.269902
      9          1           0        0.145930   -1.151670    3.034397
     10          1           0        0.830111    0.459175    3.160628
     11          6           0       -0.676710    1.996447   -1.404340
     12          6           0       -1.728216    1.068030   -0.880668
     13          1           0       -1.068338    2.616502   -2.218900
     14          1           0       -0.295384    2.662813   -0.622204
     15          6           0       -2.530120    1.189977    0.235812
     16          1           0       -2.115135    0.416908   -1.662436
     17          6           0       -2.085814    1.676137    1.480222
     18          1           0       -3.390611    0.528132    0.267712
     19          1           0       -1.144777    0.711924    1.627488
     20          1           0       -1.408197    2.524369    1.519120
     21          1           0       -2.773150    1.634223    2.318453
 ---------------------------------------------------------------------

 SCF Done:  E(RB3LYP) =  -387.294694737     A.U. after    1 cycles

 Isotropic polarizability for W=    0.000000      105.99 Bohr**3.
 End of Minotr F.D. properties file   721 does not exist.

 ******    1 imaginary frequencies (negative Signs) ******

                      1                      2                      3
                      A                      A                      A
 Frequencies --  -1180.7928               111.4084               117.3308
 Red. masses --      1.4555                 2.3163                 1.1458
 Frc consts  --      1.1957                 0.0169                 0.0093
 IR Inten    --      5.4520                 0.9036                 0.0986

                      4                      5                      6
                      A                      A                      A
 Frequencies --    153.9766               202.3038               213.2927
 Red. masses --      3.1010                 2.4194                 2.7401
 Frc consts  --      0.0433                 0.0583                 0.0734
 IR Inten    --      7.0411                 2.4944                 2.8380

                      7                      8                      9
                      A                      A                      A
 Frequencies --    253.2856               266.0547               351.4294
 Red. masses --      3.4572                 2.8313                 3.6497
 Frc consts  --      0.1307                 0.1181                 0.2656
 IR Inten    --      2.1855                 0.5167                 0.9356

                     10                     11                     12
                      A                      A                      A
 Frequencies --    410.0157               421.3729               482.4870
 Red. masses --      3.0074                 2.7645                 4.0091
 Frc consts  --      0.2979                 0.2892                 0.5499
 IR Inten    --      0.3265                 3.5521                 2.7036

                     13                     14                     15
                      A                      A                      A
 Frequencies --    567.6765               585.0779               647.7961
 Red. masses --      2.6536                 3.6080                 3.4795
 Frc consts  --      0.5038                 0.7277                 0.8603
 IR Inten    --      0.2992                 6.4310                 2.0464

                     16                     17                     18
                      A                      A                      A
 Frequencies --    717.4209               846.2903               850.7538
 Red. masses --      1.5132                 1.7631                 1.7420
 Frc consts  --      0.4589                 0.7440                 0.7429
 IR Inten    --     20.0804                13.5205                17.5115

                     19                     20                     21
                      A                      A                      A
 Frequencies --    887.3140               959.3857              1012.4125
 Red. masses --      4.6479                 1.8954                 1.6477
 Frc consts  --      2.1561                 1.0279                 0.9950
 IR Inten    --     43.4172                11.3389                 6.6546

                     22                     23                     24
                      A                      A                      A
 Frequencies --   1019.7305              1027.6406              1044.6286
 Red. masses --      1.8206                 1.5640                 2.7598
 Frc consts  --      1.1154                 0.9731                 1.7744
 IR Inten    --     21.1030                 1.0847                53.2628

                     25                     26                     27
                      A                      A                      A
 Frequencies --   1053.7311              1061.0609              1068.5996
 Red. masses --      1.4399                 1.4629                 1.6976
 Frc consts  --      0.9420                 0.9704                 1.1421
 IR Inten    --     11.8669                 8.9006                 3.0368

                     28                     29                     30
                      A                      A                      A
 Frequencies --   1118.6757              1138.2662              1198.9624
 Red. masses --      2.0209                 2.5056                 1.4172
 Frc consts  --      1.4901                 1.9127                 1.2003
 IR Inten    --     10.8771                15.8882                 1.7250

                     31                     32                     33
                      A                      A                      A
 Frequencies --   1225.7945              1247.9342              1300.1465
 Red. masses --      1.2171                 1.1675                 1.0763
 Frc consts  --      1.0775                 1.0712                 1.0719
 IR Inten    --     15.5204                10.2474                10.8262

                     34                     35                     36
                      A                      A                      A
 Frequencies --   1325.9598              1349.0950              1376.8977
 Red. masses --      1.2306                 1.2318                 1.3076
 Frc consts  --      1.2748                 1.3209                 1.4606
 IR Inten    --      4.9985                 3.6586                32.8034

                     37                     38                     39
                      A                      A                      A
 Frequencies --   1412.9462              1431.7380              1456.6730
 Red. masses --      1.1984                 1.1047                 1.2336
 Frc consts  --      1.4097                 1.3342                 1.5423
 IR Inten    --      3.1130                 2.2597                 0.4350

                     40                     41                     42
                      A                      A                      A
 Frequencies --   1478.5013              1484.8767              1506.6972
 Red. masses --      1.0437                 1.0432                 1.0932
 Frc consts  --      1.3442                 1.3552                 1.4622
 IR Inten    --     10.7427                11.3719                 0.4632

                     43                     44                     45
                      A                      A                      A
 Frequencies --   1512.0826              1516.0058              1620.1857
 Red. masses --      1.0958                 1.4767                 4.0944
 Frc consts  --      1.4761                 1.9997                 6.3323
 IR Inten    --      2.0398                 2.2582                24.6813

                     46                     47                     48
                      A                      A                      A
 Frequencies --   2049.3145              2991.4182              3013.2434
 Red. masses --      8.5810                 1.0545                 1.0592
 Frc consts  --     21.2326                 5.5595                 5.6665
 IR Inten    --     25.3736                91.0734                44.4312

                     49                     50                     51
                      A                      A                      A
 Frequencies --   3015.1999              3034.2747              3046.4388
 Red. masses --      1.1063                 1.0340                 1.1038
 Frc consts  --      5.9259                 5.6090                 6.0355
 IR Inten    --     46.0699                20.5008                14.9505

                     52                     53                     54
                      A                      A                      A
 Frequencies --   3090.1093              3104.4493              3105.1259
 Red. masses --      1.1000                 1.0821                 1.1027
 Frc consts  --      6.1885                 6.1446                 6.2641
 IR Inten    --      6.1923                26.4830                 6.9321

                     55                     56                     57
                      A                      A                      A
 Frequencies --   3106.2598              3137.3583              3182.6932
 Red. masses --      1.0621                 1.0897                 1.1105
 Frc consts  --      6.0381                 6.3198                 6.6275
 IR Inten    --      5.5366                13.3653                11.2751

 - Thermochemistry -
 -------------------
 Temperature   298.150 Kelvin.  Pressure   1.00000 Atm.
 Atom     1 has atomic number  6 and mass  12.00000

 Molecular mass:   124.08882 amu.
 Principal axes and moments of inertia in atomic units:
                           1         2         3
     Eigenvalues --   909.032371208.164601879.19561
           X            0.03726   0.88248   0.46886
           Y           -0.29479  -0.43860   0.84896
           Z            0.95484  -0.16985   0.24380
 This molecule is an asymmetric top.
 Rotational symmetry number  1.
 Warning -- assumption of classical behavior for rotation
           may cause significant error
 Rotational temperatures (Kelvin)      0.09528     0.07169     0.04609
 Rotational constants (GHZ):           1.98534     1.49379     0.96038
    1 imaginary frequencies ignored.
 Zero-point vibrational energy     460022.8 (Joules/Mol)
                                  109.94808 (Kcal/Mol)
 Warning -- explicit consideration of  13 degrees of freedom as
           vibrations may cause significant error
 Vibrational temperatures:    160.29   168.81   221.54   291.07   306.88
          (Kelvin)            364.42   382.79   505.63   589.92   606.26
                              694.19   816.76   841.80   932.03  1032.21
                             1217.62  1224.04  1276.65  1380.34  1456.64
                             1467.16  1478.55  1502.99  1516.08  1526.63
                             1537.48  1609.52  1637.71  1725.04  1763.64
                             1795.50  1870.62  1907.76  1941.05  1981.05
                             2032.91  2059.95  2095.83  2127.23  2136.41
                             2167.80  2175.55  2181.19  2331.09  2948.51
                             4303.98  4335.39  4338.20  4365.64  4383.15
                             4445.98  4466.61  4467.58  4469.22  4513.96
                             4579.19

 Zero-point correction=                           0.175213 (Hartree/Particle)
 Thermal correction to Energy=                    0.184543
 Thermal correction to Enthalpy=                  0.185487
 Thermal correction to Gibbs Free Energy=         0.141370
 Sum of electronic and zero-point Energies=           -387.119481
 Sum of electronic and thermal Energies=              -387.110152
 Sum of electronic and thermal Enthalpies=            -387.109208
 Sum of electronic and thermal Free Energies=         -387.153324

                     E (Thermal)             CV                S
                      KCal/Mol        Cal/Mol-Kelvin    Cal/Mol-Kelvin
 Total                  115.802             35.271             92.852
 Electronic               0.000              0.000              0.000
 Translational            0.889              2.981             40.361
 Rotational               0.889              2.981             29.114
 Vibrational            114.025             29.309             23.377
 Vibration     1          0.607              1.940              3.244
 Vibration     2          0.608              1.935              3.144
 Vibration     3          0.619              1.898              2.623
 Vibration     4          0.639              1.837              2.112
 Vibration     5          0.644              1.821              2.015
 Vibration     6          0.664              1.757              1.708
 Vibration     7          0.672              1.735              1.622
 Vibration     8          0.728              1.572              1.160
 Vibration     9          0.774              1.448              0.927
 Vibration    10          0.784              1.424              0.887
 Vibration    11          0.839              1.289              0.703
 Vibration    12          0.924              1.101              0.509
 Vibration    13          0.942              1.064              0.476

 Optimization completed.
    -- Stationary point found.

 1\1\GINC-BHC0009\Freq\RB3LYP\def2TZVP\C8H12O1\DHANAWAY\10-Jun-2022\1\\
 #N Geom=AllCheck Guess=TCheck SCRF=Check GenChk RB3LYP/def2TZVP Freq\\
 ts_zmat_initalOpt\\0,1\C\C,1,R2\C,1,R3,2,A3\C,2,R4,1,A4,3,D4,0\O,3,R5,
 1,A5,2,D5,0\H,3,R6,1,A6,5,D6,0\H,3,R7,1,A7,5,D7,0\H,4,R8,2,A8,1,D8,0\H
 ,4,R9,2,A9,8,D9,0\H,4,R10,2,A10,8,D10,0\C,5,R11,3,A11,1,D11,0\C,11,R12
 ,5,A12,3,D12,0\H,11,R13,5,A13,12,D13,0\H,11,R14,5,A14,12,D14,0\C,12,R1
 5,11,A15,5,D15,0\H,12,R16,11,A16,15,D16,0\C,15,R17,12,A17,11,D17,0\H,1
 5,R18,12,A18,17,D18,0\H,17,R19,15,A19,12,D19,0\H,17,R20,15,A20,19,D20,

 Normal termination of Gaussian 16 at Fri Jun 10 13:28:06 2022.
