 Gaussian 16, Revision A.03,
 Gaussian 16:  ES64L-G16RevA.03 25-Dec-2016

 ----------------------------------------------------------------------
 # Opt=(Z-matrix, MaxStep=10) B3LYP/Def2TZVP Field=read NoSymm freq=nor
 aman pop=none
 ----------------------------------------------------------------------

 ------------------
 int_zmat_initalOpt
 ------------------
 Symbolic Z-matrix:
 Charge =  0 Multiplicity = 1

 SCF Done:  E(RB3LYP) =  -269.422767123     A.U. after   13 cycles
 SCF Done:  E(RB3LYP) =  -269.422784993     A.U. after    8 cycles
 SCF Done:  E(RB3LYP) =  -269.422790886     A.U. after    8 cycles
 Optimization completed.
    -- Stationary point found.
 Normal termination of Gaussian 16 at Fri Jun 10 22:21:59 2022.

 --------------------------------------------------------------------
 #N Geom=AllCheck Guess=TCheck SCRF=Check GenChk RB3LYP/def2TZVP Freq
 --------------------------------------------------------------------

 Structure from the checkpoint file:  "checkpoint.chk"
 ------------------
 int_zmat_initalOpt
 ------------------
 Charge =  0 Multiplicity = 1

                          Input orientation:
 ---------------------------------------------------------------------
 Center     Atomic      Atomic             Coordinates (Angstroms)
 Number     Number       Type             X           Y           Z
 ---------------------------------------------------------------------
      1          1           0        0.000000    0.000000    0.000000
      2          6           0        0.000000    0.000000    1.079860
      3          6           0        1.163844    0.000000    1.746383
      4          6           0       -1.224302    0.190601    1.840782
      5          1           0        2.137513    0.049530    1.276230
      6          8           0        1.246758    0.046095    3.097026
      7          6           0       -1.194425    0.052692    3.169567
      8          1           0       -2.121640    0.514215    1.328487
      9          6           0        0.078791   -0.426962    3.802769
     10          1           0       -2.050614    0.259336    3.797993
     11          1           0        0.194215   -0.068704    4.824416
     12          1           0        0.123555   -1.528415    3.817830
 ---------------------------------------------------------------------

 SCF Done:  E(RB3LYP) =  -269.422790886     A.U. after    1 cycles

 Isotropic polarizability for W=    0.000000       59.51 Bohr**3.
 End of Minotr F.D. properties file   721 does not exist.

                      1                      2                      3
                      A                      A                      A
 Frequencies --    178.0022               335.2385               500.7889
 Red. masses --      2.2001                 2.7565                 3.1534
 Frc consts  --      0.0411                 0.1825                 0.4659
 IR Inten    --      2.3006                11.9035                15.5686

                      4                      5                      6
                      A                      A                      A
 Frequencies --    573.2607               616.9331               723.5679
 Red. masses --      3.1416                 4.7832                 1.5273
 Frc consts  --      0.6083                 1.0726                 0.4711
 IR Inten    --     13.9386                 0.7524                46.8253

                      7                      8                      9
                      A                      A                      A
 Frequencies --    776.0662               862.9031               927.0429
 Red. masses --      1.3387                 3.7222                 1.4261
 Frc consts  --      0.4750                 1.6330                 0.7221
 IR Inten    --     16.9814                12.1968                 1.8823

                     10                     11                     12
                      A                      A                      A
 Frequencies --    954.5022               972.3171               978.8170
 Red. masses --      2.6612                 2.3894                 1.7986
 Frc consts  --      1.4285                 1.3309                 1.0153
 IR Inten    --      9.1831                21.4925                 3.2079

                     13                     14                     15
                      A                      A                      A
 Frequencies --    995.5535              1083.4203              1098.4406
 Red. masses --      2.0715                 2.2633                 2.0374
 Frc consts  --      1.2097                 1.5653                 1.4484
 IR Inten    --      5.5203                 5.3876                58.8906

                     16                     17                     18
                      A                      A                      A
 Frequencies --   1189.6895              1246.6543              1279.6578
 Red. masses --      1.1151                 1.4283                 1.1331
 Frc consts  --      0.9299                 1.3079                 1.0932
 IR Inten    --      0.4757                44.3828                 8.4175

                     19                     20                     21
                      A                      A                      A
 Frequencies --   1370.0855              1414.7760              1448.0644
 Red. masses --      1.2127                 1.5468                 1.7465
 Frc consts  --      1.3412                 1.8241                 2.1578
 IR Inten    --      0.7093                11.1274                 7.0377

                     22                     23                     24
                      A                      A                      A
 Frequencies --   1500.1488              1619.7858              1693.5946
 Red. masses --      1.1104                 5.7790                 5.4190
 Frc consts  --      1.4723                 8.9334                 9.1577
 IR Inten    --      1.5889                45.7318                30.4702

                     25                     26                     27
                      A                      A                      A
 Frequencies --   2923.9311              3100.2112              3175.0365
 Red. masses --      1.0737                 1.0886                 1.0858
 Frc consts  --      5.4085                 6.1648                 6.4492
 IR Inten    --    101.5409                21.9648                 3.5213

                     28                     29                     30
                      A                      A                      A
 Frequencies --   3189.4417              3195.6419              3218.1194
 Red. masses --      1.0888                 1.0974                 1.0972
 Frc consts  --      6.5257                 6.6031                 6.6946
 IR Inten    --      3.7137                11.3085                 8.9928

 - Thermochemistry -
 -------------------
 Temperature   298.150 Kelvin.  Pressure   1.00000 Atm.
 Atom     1 has atomic number  1 and mass   1.00783

 Molecular mass:    82.04186 amu.
 Principal axes and moments of inertia in atomic units:
                           1         2         3
     Eigenvalues --   323.05294 335.80865 631.06976
           X            0.94464  -0.32377   0.05320
           Y           -0.08862  -0.09565   0.99146
           Z            0.31591   0.94129   0.11905
 This molecule is an asymmetric top.
 Rotational symmetry number  1.
 Rotational temperatures (Kelvin)      0.26811     0.25793     0.13725
 Rotational constants (GHZ):           5.58652     5.37431     2.85981
 Zero-point vibrational energy     258044.6 (Joules/Mol)
                                   61.67415 (Kcal/Mol)
 Warning -- explicit consideration of   5 degrees of freedom as
           vibrations may cause significant error
 Vibrational temperatures:    256.11   482.33   720.52   824.79   887.63
          (Kelvin)           1041.05  1116.59  1241.53  1333.81  1373.32
                             1398.95  1408.30  1432.38  1558.80  1580.41
                             1711.70  1793.66  1841.14  1971.25  2035.55
                             2083.44  2158.38  2330.51  2436.70  4206.88
                             4460.51  4568.17  4588.90  4597.82  4630.16

 Zero-point correction=                           0.098284 (Hartree/Particle)
 Thermal correction to Energy=                    0.103229
 Thermal correction to Enthalpy=                  0.104173
 Thermal correction to Gibbs Free Energy=         0.070184
 Sum of electronic and zero-point Energies=           -269.324507
 Sum of electronic and thermal Energies=              -269.319562
 Sum of electronic and thermal Enthalpies=            -269.318617
 Sum of electronic and thermal Free Energies=         -269.352607

                     E (Thermal)             CV                S
                      KCal/Mol        Cal/Mol-Kelvin    Cal/Mol-Kelvin
 Total                   64.777             18.475             71.537
 Electronic               0.000              0.000              0.000
 Translational            0.889              2.981             39.128
 Rotational               0.889              2.981             25.729
 Vibrational             63.000             12.514              6.680
 Vibration     1          0.628              1.869              2.349
 Vibration     2          0.716              1.605              1.235
 Vibration     3          0.856              1.248              0.656
 Vibration     4          0.930              1.089              0.498
 Vibration     5          0.977              0.996              0.421

                       ! Non-Optimized Parameters !
 Normal termination of Gaussian 16 at Fri Jun 10 22:24:35 2022.
