 Gaussian 16, Revision A.03,
 Gaussian 16:  ES64L-G16RevA.03 25-Dec-2016

 ----------------------------------------------------------------------
 # Opt=(Z-matrix, MaxStep=10) B3LYP/Def2TZVP geom=allcheckpoint guess=r
 ead Field=read NoSymm freq=noraman pop=none
 ----------------------------------------------------------------------

 Structure from the checkpoint file:  "checkpoint.chk"
 ------------------
 int_zmat_initalOpt
 ------------------
 Charge =  0 Multiplicity = 1

 SCF Done:  E(RB3LYP) =  -269.425827464     A.U. after   11 cycles
 SCF Done:  E(RB3LYP) =  -269.425845098     A.U. after    9 cycles
 SCF Done:  E(RB3LYP) =  -269.425853816     A.U. after    9 cycles
 SCF Done:  E(RB3LYP) =  -269.425854339     A.U. after    7 cycles
 Optimization completed.
    -- Stationary point found.
 Normal termination of Gaussian 16 at Fri Jun 10 23:39:32 2022.

 --------------------------------------------------------------------
 #N Geom=AllCheck Guess=TCheck SCRF=Check GenChk RB3LYP/def2TZVP Freq
 --------------------------------------------------------------------

 Structure from the checkpoint file:  "checkpoint.chk"
 ------------------
 int_zmat_initalOpt
 ------------------
 Charge =  0 Multiplicity = 1

                          Input orientation:
 ---------------------------------------------------------------------
 Center     Atomic      Atomic             Coordinates (Angstroms)
 Number     Number       Type             X           Y           Z
 ---------------------------------------------------------------------
      1          1           0        0.000000    0.000000    0.000000
      2          6           0        0.000000    0.000000    1.080271
      3          6           0        1.166339    0.000000    1.741394
      4          6           0       -1.214056    0.280317    1.832792
      5          1           0        2.137507    0.023624    1.263028
      6          8           0        1.266244    0.088582    3.089029
      7          6           0       -1.179999    0.227302    3.166593
      8          1           0       -2.095598    0.622938    1.306539
      9          6           0        0.073790   -0.257332    3.831436
     10          1           0       -2.016384    0.529797    3.782375
     11          1           0        0.210024    0.181702    4.818513
     12          1           0        0.065837   -1.356800    3.941865
 ---------------------------------------------------------------------

 SCF Done:  E(RB3LYP) =  -269.425854339     A.U. after    1 cycles

 Isotropic polarizability for W=    0.000000       59.75 Bohr**3.
 End of Minotr F.D. properties file   721 does not exist.

                      1                      2                      3
                      A                      A                      A
 Frequencies --    161.9155               334.5479               500.5447
 Red. masses --      2.2257                 2.7166                 3.3288
 Frc consts  --      0.0344                 0.1791                 0.4914
 IR Inten    --      1.9433                10.9840                16.2636

                      4                      5                      6
                      A                      A                      A
 Frequencies --    573.1877               618.8036               727.9722
 Red. masses --      3.2646                 4.8841                 1.4761
 Frc consts  --      0.6319                 1.1019                 0.4609
 IR Inten    --     11.6582                 1.2407                52.7958

                      7                      8                      9
                      A                      A                      A
 Frequencies --    778.4003               858.1729               915.1888
 Red. masses --      1.3542                 3.9157                 1.4001
 Frc consts  --      0.4834                 1.6991                 0.6909
 IR Inten    --     11.5378                15.7373                 7.0189

                     10                     11                     12
                      A                      A                      A
 Frequencies --    957.7214               974.0219               982.2037
 Red. masses --      2.9506                 2.4665                 2.0446
 Frc consts  --      1.5946                 1.3787                 1.1621
 IR Inten    --      9.5585                21.5788                 2.3439

                     13                     14                     15
                      A                      A                      A
 Frequencies --   1001.3161              1082.8175              1096.0353
 Red. masses --      1.6428                 2.2816                 2.0562
 Frc consts  --      0.9705                 1.5762                 1.4554
 IR Inten    --      4.6784                 5.0932                62.0387

                     16                     17                     18
                      A                      A                      A
 Frequencies --   1197.6596              1246.0108              1278.8878
 Red. masses --      1.1087                 1.3820                 1.1536
 Frc consts  --      0.9370                 1.2641                 1.1116
 IR Inten    --      0.5377                36.7083                12.6391

                     19                     20                     21
                      A                      A                      A
 Frequencies --   1369.8917              1414.8655              1446.9914
 Red. masses --      1.2101                 1.5459                 1.7261
 Frc consts  --      1.3379                 1.8233                 2.1293
 IR Inten    --      0.8113                12.7294                 5.6857

                     22                     23                     24
                      A                      A                      A
 Frequencies --   1498.4988              1622.8963              1696.3885
 Red. masses --      1.1119                 5.8474                 5.4296
 Frc consts  --      1.4710                 9.0740                 9.2060
 IR Inten    --      0.9154                38.7660                30.6278

                     25                     26                     27
                      A                      A                      A
 Frequencies --   2885.8472              3099.5766              3179.4553
 Red. masses --      1.0739                 1.0878                 1.0878
 Frc consts  --      5.2693                 6.1577                 6.4791
 IR Inten    --    158.7053                19.1288                 7.5990

                     28                     29                     30
                      A                      A                      A
 Frequencies --   3185.2356              3201.9924              3213.6283
 Red. masses --      1.0873                 1.0973                 1.0971
 Frc consts  --      6.4994                 6.6285                 6.6757
 IR Inten    --      4.7051                 3.6402                10.7731

 - Thermochemistry -
 -------------------
 Temperature   298.150 Kelvin.  Pressure   1.00000 Atm.
 Atom     1 has atomic number  1 and mass   1.00783

 Molecular mass:    82.04186 amu.
 Principal axes and moments of inertia in atomic units:
                           1         2         3
     Eigenvalues --   323.53545 336.52831 633.94011
           X            0.93446  -0.34268   0.09671
           Y           -0.11224  -0.02574   0.99335
           Z            0.33791   0.93910   0.06251
 This molecule is an asymmetric top.
 Rotational symmetry number  1.
 Rotational temperatures (Kelvin)      0.26771     0.25737     0.13663
 Rotational constants (GHZ):           5.57819     5.36282     2.84686
 Zero-point vibrational energy     257799.3 (Joules/Mol)
                                   61.61551 (Kcal/Mol)
 Warning -- explicit consideration of   5 degrees of freedom as
           vibrations may cause significant error
 Vibrational temperatures:    232.96   481.34   720.17   824.69   890.32
          (Kelvin)           1047.39  1119.94  1234.72  1316.75  1377.95
                             1401.40  1413.17  1440.67  1557.93  1576.95
                             1723.16  1792.73  1840.03  1970.97  2035.68
                             2081.90  2156.01  2334.99  2440.72  4152.09
                             4459.60  4574.53  4582.84  4606.95  4623.69

 Zero-point correction=                           0.098191 (Hartree/Particle)
 Thermal correction to Energy=                    0.103161
 Thermal correction to Enthalpy=                  0.104106
 Thermal correction to Gibbs Free Energy=         0.070029
 Sum of electronic and zero-point Energies=           -269.327664
 Sum of electronic and thermal Energies=              -269.322693
 Sum of electronic and thermal Enthalpies=            -269.321749
 Sum of electronic and thermal Free Energies=         -269.355826

                     E (Thermal)             CV                S
                      KCal/Mol        Cal/Mol-Kelvin    Cal/Mol-Kelvin
 Total                   64.735             18.485             71.721
 Electronic               0.000              0.000              0.000
 Translational            0.889              2.981             39.128
 Rotational               0.889              2.981             25.737
 Vibrational             62.957             12.524              6.855
 Vibration     1          0.622              1.889              2.527
 Vibration     2          0.716              1.607              1.238
 Vibration     3          0.856              1.249              0.657
 Vibration     4          0.929              1.089              0.498
 Vibration     5          0.979              0.992              0.418

                       ! Non-Optimized Parameters !
 Normal termination of Gaussian 16 at Fri Jun 10 23:42:15 2022.
