 Gaussian 16, Revision A.03,
 Gaussian 16:  ES64L-G16RevA.03 25-Dec-2016

 ----------------------------------------------------------------------
 # Opt=(Z-matrix, MaxStep=10) B3LYP/Def2TZVP geom=allcheckpoint guess=r
 ead Field=read NoSymm freq=noraman pop=none
 ----------------------------------------------------------------------

 Structure from the checkpoint file:  "checkpoint.chk"
 ------------------
 int_zmat_initalOpt
 ------------------
 Charge =  0 Multiplicity = 1

 SCF Done:  E(RB3LYP) =  -269.423413067     A.U. after   10 cycles
 SCF Done:  E(RB3LYP) =  -269.423431407     A.U. after    8 cycles
 SCF Done:  E(RB3LYP) =  -269.423438951     A.U. after    8 cycles
 SCF Done:  E(RB3LYP) =  -269.423439309     A.U. after    7 cycles
 Optimization completed.
    -- Stationary point found.
 Normal termination of Gaussian 16 at Fri Jun 10 22:39:35 2022.

 --------------------------------------------------------------------
 #N Geom=AllCheck Guess=TCheck SCRF=Check GenChk RB3LYP/def2TZVP Freq
 --------------------------------------------------------------------

 Structure from the checkpoint file:  "checkpoint.chk"
 ------------------
 int_zmat_initalOpt
 ------------------
 Charge =  0 Multiplicity = 1

                          Input orientation:
 ---------------------------------------------------------------------
 Center     Atomic      Atomic             Coordinates (Angstroms)
 Number     Number       Type             X           Y           Z
 ---------------------------------------------------------------------
      1          1           0        0.000000    0.000000    0.000000
      2          6           0        0.000000    0.000000    1.079960
      3          6           0        1.164623    0.000000    1.744751
      4          6           0       -1.221172    0.220819    1.838599
      5          1           0        2.137572    0.040995    1.272014
      6          8           0        1.253172    0.059774    3.094468
      7          6           0       -1.190572    0.110506    3.169570
      8          1           0       -2.113119    0.551422    1.321779
      9          6           0        0.076191   -0.371523    3.813179
     10          1           0       -2.040511    0.349802    3.794691
     11          1           0        0.198114    0.013540    4.824327
     12          1           0        0.103418   -1.473438    3.859384
 ---------------------------------------------------------------------

 SCF Done:  E(RB3LYP) =  -269.423439309     A.U. after    1 cycles

 Isotropic polarizability for W=    0.000000       59.56 Bohr**3.
 End of Minotr F.D. properties file   721 does not exist.

                      1                      2                      3
                      A                      A                      A
 Frequencies --    172.6564               335.1076               500.7165
 Red. masses --      2.2077                 2.7437                 3.2086
 Frc consts  --      0.0388                 0.1815                 0.4740
 IR Inten    --      2.1798                11.5830                15.8137

                      4                      5                      6
                      A                      A                      A
 Frequencies --    573.3132               617.6184               725.0608
 Red. masses --      3.1831                 4.8143                 1.5093
 Frc consts  --      0.6164                 1.0820                 0.4675
 IR Inten    --     13.2186                 0.9105                48.6497

                      7                      8                      9
                      A                      A                      A
 Frequencies --    776.8806               861.4897               923.5984
 Red. masses --      1.3433                 3.7847                 1.4164
 Frc consts  --      0.4777                 1.6549                 0.7119
 IR Inten    --     15.2357                13.2088                 3.1709

                     10                     11                     12
                      A                      A                      A
 Frequencies --    955.7197               972.9905               980.2448
 Red. masses --      2.7739                 2.4487                 1.8526
 Frc consts  --      1.4928                 1.3658                 1.0488
 IR Inten    --      9.4167                22.3809                 1.8265

                     13                     14                     15
                      A                      A                      A
 Frequencies --    997.2823              1083.3191              1097.8836
 Red. masses --      1.8980                 2.2690                 2.0435
 Frc consts  --      1.1122                 1.5689                 1.4512
 IR Inten    --      5.3639                 5.3191                59.9113

                     16                     17                     18
                      A                      A                      A
 Frequencies --   1192.3279              1246.6689              1279.5414
 Red. masses --      1.1130                 1.4130                 1.1401
 Frc consts  --      0.9322                 1.2938                 1.0997
 IR Inten    --      0.4858                41.9024                 9.8103

                     19                     20                     21
                      A                      A                      A
 Frequencies --   1370.1627              1414.8363              1447.8909
 Red. masses --      1.2117                 1.5468                 1.7403
 Frc consts  --      1.3403                 1.8243                 2.1495
 IR Inten    --      0.7291                11.6330                 6.6132

                     22                     23                     24
                      A                      A                      A
 Frequencies --   1499.6913              1620.9914              1694.7365
 Red. masses --      1.1110                 5.8002                 5.4238
 Frc consts  --      1.4722                 8.9795                 9.1782
 IR Inten    --      1.3146                43.4056                30.5424

                     25                     26                     27
                      A                      A                      A
 Frequencies --   2912.1703              3099.6102              3178.6258
 Red. masses --      1.0738                 1.0883                 1.0860
 Frc consts  --      5.3656                 6.1606                 6.4647
 IR Inten    --    119.2112                21.3227                 1.8447

                     28                     29                     30
                      A                      A                      A
 Frequencies --   3187.0127              3198.2749              3216.9466
 Red. masses --      1.0888                 1.0975                 1.0971
 Frc consts  --      6.5159                 6.6141                 6.6892
 IR Inten    --      6.3875                 7.7470                 9.6166

 - Thermochemistry -
 -------------------
 Temperature   298.150 Kelvin.  Pressure   1.00000 Atm.
 Atom     1 has atomic number  1 and mass   1.00783

 Molecular mass:    82.04186 amu.
 Principal axes and moments of inertia in atomic units:
                           1         2         3
     Eigenvalues --   323.18410 336.04254 632.00791
           X            0.94143  -0.33032   0.06784
           Y           -0.09706  -0.07278   0.99261
           Z            0.32294   0.94106   0.10058
 This molecule is an asymmetric top.
 Rotational symmetry number  1.
 Rotational temperatures (Kelvin)      0.26800     0.25775     0.13705
 Rotational constants (GHZ):           5.58425     5.37057     2.85557
 Zero-point vibrational energy     257994.8 (Joules/Mol)
                                   61.66225 (Kcal/Mol)
 Warning -- explicit consideration of   5 degrees of freedom as
           vibrations may cause significant error
 Vibrational temperatures:    248.41   482.15   720.42   824.87   888.62
          (Kelvin)           1043.20  1117.76  1239.49  1328.85  1375.07
                             1399.92  1410.35  1434.87  1558.65  1579.61
                             1715.49  1793.68  1840.97  1971.36  2035.63
                             2083.19  2157.72  2332.25  2438.35  4189.96
                             4459.65  4573.33  4585.40  4601.60  4628.47

 Zero-point correction=                           0.098265 (Hartree/Particle)
 Thermal correction to Energy=                    0.103218
 Thermal correction to Enthalpy=                  0.104162
 Thermal correction to Gibbs Free Energy=         0.070146
 Sum of electronic and zero-point Energies=           -269.325174
 Sum of electronic and thermal Energies=              -269.320221
 Sum of electronic and thermal Enthalpies=            -269.319277
 Sum of electronic and thermal Free Energies=         -269.353294

                     E (Thermal)             CV                S
                      KCal/Mol        Cal/Mol-Kelvin    Cal/Mol-Kelvin
 Total                   64.770             18.476             71.595
 Electronic               0.000              0.000              0.000
 Translational            0.889              2.981             39.128
 Rotational               0.889              2.981             25.732
 Vibrational             62.993             12.514              6.735
 Vibration     1          0.626              1.876              2.406
 Vibration     2          0.716              1.605              1.235
 Vibration     3          0.856              1.248              0.656
 Vibration     4          0.930              1.089              0.498
 Vibration     5          0.977              0.995              0.420

                       ! Non-Optimized Parameters !
 Normal termination of Gaussian 16 at Fri Jun 10 22:42:12 2022.
