 Gaussian 16, Revision A.03,
 Gaussian 16:  ES64L-G16RevA.03 25-Dec-2016

 ----------------------------------------------------------------------
 # Opt=(TS, CalcFC, noeigentest, Z-matrix, MaxStep=10) Field=read NoSym
 m B3LYP/Def2TZVP freq=noraman pop=none
 ----------------------------------------------------------------------

 -----------------
 ts_zmat_initalOpt
 -----------------
 Symbolic Z-matrix:
 Charge =  0 Multiplicity = 1

 SCF Done:  E(RB3LYP) =  -195.276940022     A.U. after   16 cycles
 SCF Done:  E(RB3LYP) =  -195.276945644     A.U. after    9 cycles
 Optimization completed.
    -- Stationary point found.
 Normal termination of Gaussian 16 at Fri Jun 10 02:47:08 2022.

 --------------------------------------------------------------------
 #N Geom=AllCheck Guess=TCheck SCRF=Check GenChk RB3LYP/def2TZVP Freq
 --------------------------------------------------------------------

 Structure from the checkpoint file:  "checkpoint.chk"
 -----------------
 ts_zmat_initalOpt
 -----------------
 Charge =  0 Multiplicity = 1

                          Input orientation:
 ---------------------------------------------------------------------
 Center     Atomic      Atomic             Coordinates (Angstroms)
 Number     Number       Type             X           Y           Z
 ---------------------------------------------------------------------
      1          6           0        0.000000    0.000000    0.000000
      2          6           0        0.000000    0.000000    1.505747
      3          6           0        1.418416    0.000000   -0.339243
      4          1           0       -0.552994    0.846962   -0.413347
      5          1           0       -0.496661   -0.916832   -0.336483
      6          1           0        1.905753    0.835321   -0.817506
      7          1           0        2.016952   -0.864455   -0.090487
      8          6           0        0.745042    0.886409    2.271580
      9          1           0       -0.644388   -0.716356    2.007868
     10          6           0        1.949111    1.463699    1.961218
     11          1           0        0.279708    1.172876    3.218106
     12          1           0        2.689057    0.928669    1.390321
     13          1           0        2.258181    2.396426    2.420538
 ---------------------------------------------------------------------

 SCF Done:  E(RB3LYP) =  -195.276945644     A.U. after    1 cycles

 Isotropic polarizability for W=    0.000000       74.70 Bohr**3.
 End of Minotr F.D. properties file   721 does not exist.

 ******    1 imaginary frequencies (negative Signs) ******

                      1                      2                      3
                      A                      A                      A
 Frequencies --   -420.3486               220.8868               258.9109
 Red. masses --      1.9572                 2.1980                 2.3149
 Frc consts  --      0.2038                 0.0632                 0.0914
 IR Inten    --      0.0666                 0.5872                 1.4935

                      4                      5                      6
                      A                      A                      A
 Frequencies --    373.5390               544.8637               583.1898
 Red. masses --      2.2709                 1.2786                 1.3118
 Frc consts  --      0.1867                 0.2236                 0.2629
 IR Inten    --      6.6162                 7.0383                 4.2558

                      7                      8                      9
                      A                      A                      A
 Frequencies --    649.9538               705.8901               760.8142
 Red. masses --      1.4343                 1.4035                 1.2552
 Frc consts  --      0.3570                 0.4120                 0.4281
 IR Inten    --     20.1454                32.1155                47.6356

                     10                     11                     12
                      A                      A                      A
 Frequencies --    776.0867               828.1572               898.9937
 Red. masses --      1.3645                 1.5015                 1.4703
 Frc consts  --      0.4842                 0.6068                 0.7001
 IR Inten    --     30.5054                 7.4585                 3.8015

                     13                     14                     15
                      A                      A                      A
 Frequencies --    930.2157              1030.6003              1063.2768
 Red. masses --      1.8798                 1.5596                 1.6673
 Frc consts  --      0.9584                 0.9760                 1.1106
 IR Inten    --      2.7803                 0.0904                13.9606

                     16                     17                     18
                      A                      A                      A
 Frequencies --   1128.5450              1153.7014              1220.9722
 Red. masses --      2.2373                 1.9122                 1.2446
 Frc consts  --      1.6788                 1.4996                 1.0932
 IR Inten    --     15.8492                 0.0812                 5.0185

                     19                     20                     21
                      A                      A                      A
 Frequencies --   1266.3025              1306.2670              1400.4822
 Red. masses --      1.2629                 1.3045                 1.3590
 Frc consts  --      1.1931                 1.3115                 1.5705
 IR Inten    --     17.0187                 6.4969                 3.3089

                     22                     23                     24
                      A                      A                      A
 Frequencies --   1423.3578              1481.4266              1497.2416
 Red. masses --      1.1093                 1.2524                 1.4642
 Frc consts  --      1.3242                 1.6194                 1.9339
 IR Inten    --     11.3536                 6.4459                 2.0813

                     25                     26                     27
                      A                      A                      A
 Frequencies --   1591.6667              3010.8374              3056.7925
 Red. masses --      4.0768                 1.0584                 1.1001
 Frc consts  --      6.0851                 5.6529                 6.0566
 IR Inten    --     17.7879                18.4167                11.9805

                     28                     29                     30
                      A                      A                      A
 Frequencies --   3061.5689              3135.9489              3140.0623
 Red. masses --      1.0841                 1.0813                 1.0705
 Frc consts  --      5.9871                 6.2651                 6.2190
 IR Inten    --     16.0716                22.8228                 3.6685

                     31                     32                     33
                      A                      A                      A
 Frequencies --   3165.3081              3256.5487              3268.4962
 Red. masses --      1.0514                 1.1050                 1.1185
 Frc consts  --      6.2066                 6.9043                 7.0404
 IR Inten    --      4.3208                10.0261                 3.0588

 - Thermochemistry -
 -------------------
 Temperature   298.150 Kelvin.  Pressure   1.00000 Atm.
 Atom     1 has atomic number  6 and mass  12.00000

 Molecular mass:    68.06260 amu.
 Principal axes and moments of inertia in atomic units:
                           1         2         3
     Eigenvalues --   212.32142 402.20388 565.52551
           X            0.31786   0.85292  -0.41412
           Y            0.47579   0.23431   0.84778
           Z            0.82012  -0.46651  -0.33133
 This molecule is an asymmetric top.
 Rotational symmetry number  1.
 Rotational temperatures (Kelvin)      0.40794     0.21535     0.15316
 Rotational constants (GHZ):           8.50004     4.48713     3.19126
    1 imaginary frequencies ignored.
 Zero-point vibrational energy     288245.6 (Joules/Mol)
                                   68.89236 (Kcal/Mol)
 Warning -- explicit consideration of   5 degrees of freedom as
           vibrations may cause significant error
 Vibrational temperatures:    317.81   372.51   537.44   783.94   839.08
          (Kelvin)            935.14  1015.62  1094.64  1116.62  1191.53
                             1293.45  1338.37  1482.80  1529.82  1623.72
                             1659.92  1756.71  1821.93  1879.43  2014.98
                             2047.89  2131.44  2154.20  2290.05  4331.92
                             4398.04  4404.91  4511.93  4517.85  4554.17
                             4685.45  4702.64

 Zero-point correction=                           0.109787 (Hartree/Particle)
 Thermal correction to Energy=                    0.115086
 Thermal correction to Enthalpy=                  0.116030
 Thermal correction to Gibbs Free Energy=         0.081969
 Sum of electronic and zero-point Energies=           -195.167159
 Sum of electronic and thermal Energies=              -195.161860
 Sum of electronic and thermal Enthalpies=            -195.160916
 Sum of electronic and thermal Free Energies=         -195.194977

                     E (Thermal)             CV                S
                      KCal/Mol        Cal/Mol-Kelvin    Cal/Mol-Kelvin
 Total                   72.217             20.052             71.687
 Electronic               0.000              0.000              0.000
 Translational            0.889              2.981             38.571
 Rotational               0.889              2.981             25.383
 Vibrational             70.440             14.091              7.733
 Vibration     1          0.648              1.809              1.952
 Vibration     2          0.668              1.748              1.669
 Vibration     3          0.745              1.526              1.065
 Vibration     4          0.900              1.151              0.555
 Vibration     5          0.940              1.068              0.479

 Optimization completed.
    -- Stationary point found.
 Normal termination of Gaussian 16 at Fri Jun 10 02:49:24 2022.
