 Gaussian 16, Revision A.03,
 Gaussian 16:  ES64L-G16RevA.03 25-Dec-2016

 ----------------------------------------------------------------------
 # Opt=(Z-matrix, MaxStep=10) B3LYP/Def2TZVP Field=read NoSymm freq=nor
 aman pop=none
 ----------------------------------------------------------------------

 ------------------
 int_zmat_initalOpt
 ------------------
 Symbolic Z-matrix:
 Charge =  0 Multiplicity = 1

 SCF Done:  E(RB3LYP) =  -195.367867101     A.U. after   13 cycles
 SCF Done:  E(RB3LYP) =  -195.367871771     A.U. after    8 cycles
 SCF Done:  E(RB3LYP) =  -195.367875472     A.U. after    8 cycles
 SCF Done:  E(RB3LYP) =  -195.367876620     A.U. after    8 cycles
 SCF Done:  E(RB3LYP) =  -195.367876842     A.U. after    7 cycles
 Optimization completed.
    -- Stationary point found.
 Normal termination of Gaussian 16 at Fri Jun 10 11:03:45 2022.

 --------------------------------------------------------------------
 #N Geom=AllCheck Guess=TCheck SCRF=Check GenChk RB3LYP/def2TZVP Freq
 --------------------------------------------------------------------

 Structure from the checkpoint file:  "checkpoint.chk"
 ------------------
 int_zmat_initalOpt
 ------------------
 Charge =  0 Multiplicity = 1

                          Input orientation:
 ---------------------------------------------------------------------
 Center     Atomic      Atomic             Coordinates (Angstroms)
 Number     Number       Type             X           Y           Z
 ---------------------------------------------------------------------
      1          6           0        0.000000    0.000000    0.000000
      2          6           0        0.000000    0.000000    1.481521
      3          6           0        1.308859    0.000000   -0.766421
      4          6           0        0.398947   -1.195166   -0.815867
      5          1           0       -0.768591    0.630700   -0.434419
      6          1           0        2.217951   -0.086691   -0.186039
      7          1           0        1.387348    0.630454   -1.641947
      8          1           0        0.716914   -2.088817   -0.296635
      9          1           0       -0.147531   -1.385559   -1.729544
     10          6           0        0.079588   -1.059637    2.279818
     11          1           0       -0.067274    0.986321    1.935586
     12          1           0        0.126951   -2.070266    1.892609
     13          1           0        0.089969   -0.949526    3.356856
 ---------------------------------------------------------------------

 SCF Done:  E(RB3LYP) =  -195.367876842     A.U. after    1 cycles

 Isotropic polarizability for W=    0.000000       58.27 Bohr**3.
 End of Minotr F.D. properties file   721 does not exist.

                      1                      2                      3
                      A                      A                      A
 Frequencies --     90.3344               267.9540               306.2181
 Red. masses --      2.0336                 2.6303                 1.8144
 Frc consts  --      0.0098                 0.1113                 0.1002
 IR Inten    --      0.6063                 0.4148                 0.8997

                      4                      5                      6
                      A                      A                      A
 Frequencies --    535.8003               664.9489               758.6281
 Red. masses --      2.0790                 1.6243                 1.6940
 Frc consts  --      0.3517                 0.4231                 0.5744
 IR Inten    --      0.2858                13.9588                 1.7559

                      7                      8                      9
                      A                      A                      A
 Frequencies --    813.7022               837.7043               908.8823
 Red. masses --      1.2603                 1.4418                 2.5126
 Frc consts  --      0.4917                 0.5961                 1.2229
 IR Inten    --      0.4624                 8.8349                 7.6801

                     10                     11                     12
                      A                      A                      A
 Frequencies --    934.8803               947.8459              1026.6719
 Red. masses --      1.3714                 2.4884                 1.1124
 Frc consts  --      0.7062                 1.3172                 0.6908
 IR Inten    --     40.7069                13.7428                17.4265

                     13                     14                     15
                      A                      A                      A
 Frequencies --   1052.4504              1083.2494              1096.2014
 Red. masses --      1.2059                 1.3382                 1.5575
 Frc consts  --      0.7870                 0.9252                 1.1027
 IR Inten    --      6.0973                 3.5597                 9.2463

                     16                     17                     18
                      A                      A                      A
 Frequencies --   1122.2738              1134.7020              1201.2235
 Red. masses --      1.4836                 1.2064                 1.3883
 Frc consts  --      1.1009                 0.9152                 1.1803
 IR Inten    --      1.2554                 0.5591                 2.3063

                     19                     20                     21
                      A                      A                      A
 Frequencies --   1227.5453              1335.2950              1404.8678
 Red. masses --      1.8938                 1.2631                 1.5186
 Frc consts  --      1.6814                 1.3269                 1.7659
 IR Inten    --      2.1652                 0.2317                 0.1021

                     22                     23                     24
                      A                      A                      A
 Frequencies --   1457.8375              1473.5031              1509.0021
 Red. masses --      1.2801                 1.0950                 1.3364
 Frc consts  --      1.6029                 1.4008                 1.7929
 IR Inten    --      3.5980                 3.8467                 2.5165

                     25                     26                     27
                      A                      A                      A
 Frequencies --   1700.2507              3115.5909              3129.9307
 Red. masses --      4.5094                 1.0839                 1.0561
 Frc consts  --      7.6805                 6.1992                 6.0957
 IR Inten    --     28.5069                15.7432                16.4093

                     28                     29                     30
                      A                      A                      A
 Frequencies --   3132.5676              3137.5737              3142.2019
 Red. masses --      1.0780                 1.0586                 1.0648
 Frc consts  --      6.2325                 6.1402                 6.1940
 IR Inten    --     19.6635                 7.6187                 4.8845

                     31                     32                     33
                      A                      A                      A
 Frequencies --   3207.5935              3216.0528              3222.5076
 Red. masses --      1.1193                 1.1155                 1.1161
 Frc consts  --      6.7849                 6.7978                 6.8287
 IR Inten    --      0.1831                20.8857                12.7263

 - Thermochemistry -
 -------------------
 Temperature   298.150 Kelvin.  Pressure   1.00000 Atm.
 Atom     1 has atomic number  6 and mass  12.00000

 Molecular mass:    68.06260 amu.
 Principal axes and moments of inertia in atomic units:
                           1         2         3
     Eigenvalues --   154.74490 493.04550 544.76301
           X           -0.25144   0.06880   0.96543
           Y           -0.08424   0.99213  -0.09264
           Z            0.96420   0.10463   0.24366
 This molecule is an asymmetric top.
 Rotational symmetry number  1.
 Rotational temperatures (Kelvin)      0.55972     0.17567     0.15899
 Rotational constants (GHZ):          11.66269     3.66039     3.31289
 Zero-point vibrational energy     300238.7 (Joules/Mol)
                                   71.75877 (Kcal/Mol)
 Warning -- explicit consideration of   4 degrees of freedom as
           vibrations may cause significant error
 Vibrational temperatures:    129.97   385.53   440.58   770.90   956.71
          (Kelvin)           1091.50  1170.74  1205.27  1307.68  1345.08
                             1363.74  1477.15  1514.24  1558.55  1577.19
                             1614.70  1632.58  1728.29  1766.16  1921.19
                             2021.29  2097.50  2120.04  2171.12  2446.28
                             4482.64  4503.27  4507.07  4514.27  4520.93
                             4615.01  4627.18  4636.47

 Zero-point correction=                           0.114355 (Hartree/Particle)
 Thermal correction to Energy=                    0.119747
 Thermal correction to Enthalpy=                  0.120691
 Thermal correction to Gibbs Free Energy=         0.086040
 Sum of electronic and zero-point Energies=           -195.253522
 Sum of electronic and thermal Energies=              -195.248130
 Sum of electronic and thermal Enthalpies=            -195.247186
 Sum of electronic and thermal Free Energies=         -195.281837

                     E (Thermal)             CV                S
                      KCal/Mol        Cal/Mol-Kelvin    Cal/Mol-Kelvin
 Total                   75.142             19.370             72.928
 Electronic               0.000              0.000              0.000
 Translational            0.889              2.981             38.571
 Rotational               0.889              2.981             25.233
 Vibrational             73.365             13.408              9.124
 Vibration     1          0.602              1.956              3.653
 Vibration     2          0.673              1.732              1.609
 Vibration     3          0.697              1.662              1.383
 Vibration     4          0.891              1.171              0.574

 Optimization completed.
    -- Stationary point found.
 Normal termination of Gaussian 16 at Fri Jun 10 11:05:55 2022.
