 Gaussian 16, Revision A.03,
 Gaussian 16:  ES64L-G16RevA.03 25-Dec-2016

 ----------------------------------------------------------------------
 # Opt=(Z-matrix, MaxStep=10) B3LYP/Def2TZVP geom=allcheckpoint guess=r
 ead Field=read NoSymm freq=noraman pop=none
 ----------------------------------------------------------------------

 Structure from the checkpoint file:  "checkpoint.chk"
 ------------------
 int_zmat_initalOpt
 ------------------
 Charge =  0 Multiplicity = 1

 SCF Done:  E(RB3LYP) =  -289.045152534     A.U. after   10 cycles
 SCF Done:  E(RB3LYP) =  -289.044981512     A.U. after   10 cycles
 SCF Done:  E(RB3LYP) =  -289.045173334     A.U. after    9 cycles
 SCF Done:  E(RB3LYP) =  -289.045177471     A.U. after    8 cycles
 Optimization completed.
    -- Stationary point found.
 Normal termination of Gaussian 16 at Fri Jun 10 12:17:46 2022.

 --------------------------------------------------------------------
 #N Geom=AllCheck Guess=TCheck SCRF=Check GenChk RB3LYP/def2TZVP Freq
 --------------------------------------------------------------------

 Structure from the checkpoint file:  "checkpoint.chk"
 ------------------
 int_zmat_initalOpt
 ------------------
 Charge =  0 Multiplicity = 1

                          Input orientation:
 ---------------------------------------------------------------------
 Center     Atomic      Atomic             Coordinates (Angstroms)
 Number     Number       Type             X           Y           Z
 ---------------------------------------------------------------------
      1          7           0        0.000000    0.000000    0.000000
      2          6           0        0.000000    0.000000    1.521184
      3          8           0        1.284496    0.000000   -0.430831
      4          6           0       -0.682891    1.241755   -0.485639
      5          6           0       -0.717498   -1.197258   -0.550650
      6          6           0        0.808079   -1.145266    2.096363
      7          1           0        0.463543    0.950744    1.778756
      8          1           0       -1.037783   -0.001968    1.876945
      9          1           0       -0.630533    1.228959   -1.570203
     10          1           0       -0.108526    2.085629   -0.114785
     11          1           0       -1.721424    1.285139   -0.144720
     12          1           0       -0.166956   -2.080519   -0.245539
     13          1           0       -0.672829   -1.116481   -1.632469
     14          1           0       -1.754455   -1.234659   -0.205520
     15          1           0        1.758915   -1.193825    1.566271
     16          1           0        0.298360   -2.106191    2.006502
     17          1           0        0.996952   -0.961361    3.157160
 ---------------------------------------------------------------------

 SCF Done:  E(RB3LYP) =  -289.045177471     A.U. after    1 cycles

 Isotropic polarizability for W=    0.000000       65.46 Bohr**3.
 End of Minotr F.D. properties file   721 does not exist.

                      1                      2                      3
                      A                      A                      A
 Frequencies --    114.3422               203.2235               240.0208
 Red. masses --      1.8317                 1.0675                 1.1564
 Frc consts  --      0.0141                 0.0260                 0.0393
 IR Inten    --      2.3804                 2.0275                 2.6162

                      4                      5                      6
                      A                      A                      A
 Frequencies --    275.7936               280.8600               369.0676
 Red. masses --      1.1953                 2.0224                 2.6759
 Frc consts  --      0.0536                 0.0940                 0.2147
 IR Inten    --      0.1079                 2.5667                10.9496

                      7                      8                      9
                      A                      A                      A
 Frequencies --    394.3535               431.0061               484.2716
 Red. masses --      2.7299                 2.5245                 3.3728
 Frc consts  --      0.2501                 0.2763                 0.4660
 IR Inten    --      4.8192                 9.2976                11.0421

                     10                     11                     12
                      A                      A                      A
 Frequencies --    539.0965               699.1099               795.2997
 Red. masses --      3.2225                 3.2895                 1.2401
 Frc consts  --      0.5518                 0.9473                 0.4622
 IR Inten    --      7.3939                 2.3880                 1.7693

                     13                     14                     15
                      A                      A                      A
 Frequencies --    882.9157               923.9776               943.7858
 Red. masses --      2.3481                 1.9782                 4.6015
 Frc consts  --      1.0785                 0.9950                 2.4149
 IR Inten    --      4.3545                 1.6272                27.3153

                     16                     17                     18
                      A                      A                      A
 Frequencies --    999.5802              1071.9297              1108.4169
 Red. masses --      1.7548                 1.4225                 1.7256
 Frc consts  --      1.0330                 0.9630                 1.2491
 IR Inten    --      3.3001                 0.8684                 1.5932

                     19                     20                     21
                      A                      A                      A
 Frequencies --   1131.1062              1200.7968              1232.1489
 Red. masses --      1.4607                 1.7751                 2.1358
 Frc consts  --      1.1011                 1.5080                 1.9104
 IR Inten    --      2.1340                 6.0340                 0.4054

                     22                     23                     24
                      A                      A                      A
 Frequencies --   1253.8847              1317.6802              1374.9714
 Red. masses --      1.8920                 1.2922                 1.2255
 Frc consts  --      1.7526                 1.3219                 1.3650
 IR Inten    --      3.1515                 4.8782                 3.6122

                     25                     26                     27
                      A                      A                      A
 Frequencies --   1396.2557              1414.8147              1445.3506
 Red. masses --      1.3043                 1.1675                 1.2036
 Frc consts  --      1.4981                 1.3769                 1.4814
 IR Inten    --     15.0483                 1.6045                 2.2210

                     28                     29                     30
                      A                      A                      A
 Frequencies --   1455.8716              1471.8037              1478.2597
 Red. masses --      1.0567                 1.0604                 1.0542
 Frc consts  --      1.3197                 1.3533                 1.3573
 IR Inten    --      0.7316                 1.2814                 9.4228

                     31                     32                     33
                      A                      A                      A
 Frequencies --   1483.7722              1490.6738              1505.5800
 Red. masses --      1.0741                 1.0548                 1.0496
 Frc consts  --      1.3933                 1.3809                 1.4018
 IR Inten    --      9.0058                13.2954                15.3492

                     34                     35                     36
                      A                      A                      A
 Frequencies --   1513.1181              2988.6917              3018.4200
 Red. masses --      1.0528                 1.0682                 1.0463
 Frc consts  --      1.4201                 5.6217                 5.6163
 IR Inten    --      2.0805                44.0024                20.6838

                     37                     38                     39
                      A                      A                      A
 Frequencies --   3029.2827              3033.9106              3079.3612
 Red. masses --      1.0387                 1.0455                 1.0986
 Frc consts  --      5.6158                 5.6698                 6.1379
 IR Inten    --     50.0464               108.9028                22.2573

                     40                     41                     42
                      A                      A                      A
 Frequencies --   3107.7509              3125.7959              3138.1861
 Red. masses --      1.0928                 1.1010                 1.0874
 Frc consts  --      6.2185                 6.3379                 6.3096
 IR Inten    --     21.2169                 3.7673                 8.1213

                     43                     44                     45
                      A                      A                      A
 Frequencies --   3148.2258              3174.5853              3183.9628
 Red. masses --      1.0876                 1.1068                 1.1061
 Frc consts  --      6.3513                 6.5718                 6.6067
 IR Inten    --      9.0997                 3.6103                 2.8276

 - Thermochemistry -
 -------------------
 Temperature   298.150 Kelvin.  Pressure   1.00000 Atm.
 Atom     1 has atomic number  7 and mass  14.00307

 Molecular mass:    89.08406 amu.
 Principal axes and moments of inertia in atomic units:
                           1         2         3
     Eigenvalues --   363.43779 648.30224 674.76899
           X            0.33554   0.15631   0.92897
           Y           -0.45228   0.89178   0.01330
           Z            0.82635   0.42461  -0.36992
 This molecule is an asymmetric top.
 Rotational symmetry number  1.
 Rotational temperatures (Kelvin)      0.23832     0.13360     0.12836
 Rotational constants (GHZ):           4.96575     2.78380     2.67461
 Zero-point vibrational energy     400457.8 (Joules/Mol)
                                   95.71171 (Kcal/Mol)
 Warning -- explicit consideration of  10 degrees of freedom as
           vibrations may cause significant error
 Vibrational temperatures:    164.51   292.39   345.34   396.81   404.09
          (Kelvin)            531.01   567.39   620.12   696.76   775.64
                             1005.86  1144.26  1270.32  1329.40  1357.90
                             1438.17  1542.27  1594.76  1627.41  1727.68
                             1772.79  1804.06  1895.85  1978.28  2008.90
                             2035.60  2079.54  2094.67  2117.60  2126.89
                             2134.82  2144.75  2166.19  2177.04  4300.06
                             4342.83  4358.46  4365.12  4430.51  4471.36
                             4497.32  4515.15  4529.59  4567.52  4581.01

 Zero-point correction=                           0.152526 (Hartree/Particle)
 Thermal correction to Energy=                    0.159965
 Thermal correction to Enthalpy=                  0.160909
 Thermal correction to Gibbs Free Energy=         0.122043
 Sum of electronic and zero-point Energies=           -288.892651
 Sum of electronic and thermal Energies=              -288.885213
 Sum of electronic and thermal Enthalpies=            -288.884269
 Sum of electronic and thermal Free Energies=         -288.923135

                     E (Thermal)             CV                S
                      KCal/Mol        Cal/Mol-Kelvin    Cal/Mol-Kelvin
 Total                  100.379             27.613             81.801
 Electronic               0.000              0.000              0.000
 Translational            0.889              2.981             39.373
 Rotational               0.889              2.981             26.566
 Vibrational             98.602             21.651             15.861
 Vibration     1          0.607              1.938              3.194
 Vibration     2          0.639              1.835              2.104
 Vibration     3          0.657              1.779              1.803
 Vibration     4          0.677              1.718              1.560
 Vibration     5          0.681              1.709              1.528
 Vibration     6          0.741              1.536              1.084
 Vibration     7          0.761              1.482              0.984
 Vibration     8          0.792              1.403              0.855
 Vibration     9          0.840              1.285              0.699
 Vibration    10          0.894              1.164              0.567

 Optimization completed.
    -- Stationary point found.
 Normal termination of Gaussian 16 at Fri Jun 10 12:22:24 2022.
