 Gaussian 16, Revision A.03,
 Gaussian 16:  ES64L-G16RevA.03 25-Dec-2016

 ----------------------------------------------------------------------
 # Opt=(Z-matrix, MaxStep=10) B3LYP/Def2TZVP geom=allcheckpoint guess=r
 ead Field=read NoSymm freq=noraman pop=none
 ----------------------------------------------------------------------

 Structure from the checkpoint file:  "checkpoint.chk"
 ------------------
 int_zmat_initalOpt
 ------------------
 Charge =  0 Multiplicity = 1

 SCF Done:  E(RB3LYP) =  -387.397020398     A.U. after   10 cycles
 SCF Done:  E(RB3LYP) =  -387.397037508     A.U. after    8 cycles
 SCF Done:  E(RB3LYP) =  -387.397043210     A.U. after    8 cycles
 SCF Done:  E(RB3LYP) =  -387.397044023     A.U. after    7 cycles
 SCF Done:  E(RB3LYP) =  -387.397044398     A.U. after    7 cycles
 SCF Done:  E(RB3LYP) =  -387.397045089     A.U. after    8 cycles
 SCF Done:  E(RB3LYP) =  -387.397045969     A.U. after    8 cycles
 SCF Done:  E(RB3LYP) =  -387.397046961     A.U. after    8 cycles
 SCF Done:  E(RB3LYP) =  -387.397047445     A.U. after    8 cycles
 SCF Done:  E(RB3LYP) =  -387.397047093     A.U. after    8 cycles
 SCF Done:  E(RB3LYP) =  -387.397047702     A.U. after    6 cycles
 Optimization completed.
    -- Stationary point found.

 1\1\GINC-BHC0034\FOpt\RB3LYP\def2TZVP\C8H12O1\DHANAWAY\11-Jun-2022\1\\
 # Opt=(Z-matrix, MaxStep=10) B3LYP/Def2TZVP geom=allcheckpoint guess=r
 ead Field=read NoSymm freq=noraman pop=none\\int_zmat_initalOpt\\0,1\H
 \C,1,R2\C,2,R3,1,A3\O,2,R4,1,A4,3,D4,0\H,2,R5,1,A5,3,D5,0\C,4,R6,2,A6,
 1,D6,0\C,3,R7,2,A7,1,D7,0\C,3,R8,2,A8,7,D8,0\H,6,R9,4,A9,2,D9,0\H,6,R1
 0,4,A10,9,D10,0\C,7,R11,3,A11,2,D11,0\H,7,R12,3,A12,11,D12,0\H,8,R13,3
 ,A13,2,D13,0\C,8,R14,3,A14,13,D14,0\C,11,R15,7,A15,3,D15,0\H,11,R16,7,
 A16,15,D16,0\H,14,R17,8,A17,3,D17,0\H,14,R18,8,A18,17,D18,0\H,14,R19,8

 Normal termination of Gaussian 16 at Sat Jun 11 00:34:24 2022.

 --------------------------------------------------------------------
 #N Geom=AllCheck Guess=TCheck SCRF=Check GenChk RB3LYP/def2TZVP Freq
 --------------------------------------------------------------------

 Structure from the checkpoint file:  "checkpoint.chk"
 ------------------
 int_zmat_initalOpt
 ------------------
 Charge =  0 Multiplicity = 1

                          Input orientation:
 ---------------------------------------------------------------------
 Center     Atomic      Atomic             Coordinates (Angstroms)
 Number     Number       Type             X           Y           Z
 ---------------------------------------------------------------------
      1          1           0        0.000000    0.000000    0.000000
      2          6           0        0.000000    0.000000    1.099025
      3          6           0        1.401090    0.000000    1.672680
      4          8           0       -0.633778    1.196261    1.570095
      5          1           0       -0.601019   -0.848410    1.436655
      6          6           0        0.384986    2.104642    1.982041
      7          6           0        1.492042    1.229690    2.570022
      8          6           0        2.350339   -0.898469    1.438853
      9          1           0       -0.056205    2.796712    2.699721
     10          1           0        0.760822    2.675608    1.120250
     11          6           0        2.851318    1.843668    2.713728
     12          1           0        1.163633    0.921946    3.573219
     13          1           0        3.314892   -0.774612    1.920267
     14          6           0        2.214351   -2.119800    0.582531
     15          6           0        3.173855    3.112787    2.494231
     16          1           0        3.624606    1.170575    3.070181
     17          1           0        1.252579   -2.169648    0.069968
     18          1           0        2.318688   -3.026074    1.185975
     19          1           0        3.006860   -2.159487   -0.170184
     20          1           0        2.451448    3.850338    2.164098
     21          1           0        4.184226    3.465197    2.656624
 ---------------------------------------------------------------------

 SCF Done:  E(RB3LYP) =  -387.397047702     A.U. after    1 cycles

 Isotropic polarizability for W=    0.000000       97.47 Bohr**3.
 End of Minotr F.D. properties file   721 does not exist.

                      1                      2                      3
                      A                      A                      A
 Frequencies --     48.8660                77.9248               128.4757
 Red. masses --      2.3943                 2.5147                 1.0315
 Frc consts  --      0.0034                 0.0090                 0.0100
 IR Inten    --      0.4478                 0.1726                 0.3151

                      4                      5                      6
                      A                      A                      A
 Frequencies --    178.4857               184.5528               195.2177
 Red. masses --      2.4652                 3.2204                 2.3722
 Frc consts  --      0.0463                 0.0646                 0.0533
 IR Inten    --      0.3285                 0.7024                 7.2471

                      7                      8                      9
                      A                      A                      A
 Frequencies --    240.7734               321.5829               432.0253
 Red. masses --      3.0069                 2.5505                 2.7427
 Frc consts  --      0.1027                 0.1554                 0.3016
 IR Inten    --      0.5918                 0.3847                 0.9276

                     10                     11                     12
                      A                      A                      A
 Frequencies --    487.1847               532.2115               573.1761
 Red. masses --      2.6588                 2.3569                 2.8712
 Frc consts  --      0.3718                 0.3933                 0.5558
 IR Inten    --      3.8338                 3.2863                 2.3900

                     13                     14                     15
                      A                      A                      A
 Frequencies --    644.8743               698.2593               795.9635
 Red. masses --      4.9481                 1.9722                 2.2809
 Frc consts  --      1.2124                 0.5665                 0.8514
 IR Inten    --      2.0181                11.6533                 5.9625

                     16                     17                     18
                      A                      A                      A
 Frequencies --    862.5543               938.8173               940.1067
 Red. masses --      1.2722                 3.3333                 1.4356
 Frc consts  --      0.5577                 1.7309                 0.7475
 IR Inten    --      7.0515                33.4638                50.2422

                     19                     20                     21
                      A                      A                      A
 Frequencies --    957.0298               990.0837              1009.9029
 Red. masses --      3.4447                 1.6553                 1.6862
 Frc consts  --      1.8589                 0.9560                 1.0132
 IR Inten    --      5.8349                15.9521                10.2786

                     22                     23                     24
                      A                      A                      A
 Frequencies --   1019.0872              1035.7302              1052.3870
 Red. masses --      1.5173                 1.3988                 1.4207
 Frc consts  --      0.9284                 0.8841                 0.9270
 IR Inten    --      6.6648                 1.4362                10.6132

                     25                     26                     27
                      A                      A                      A
 Frequencies --   1065.4953              1084.0211              1104.4018
 Red. masses --      1.5750                 5.8012                 2.7885
 Frc consts  --      1.0535                 4.0164                 2.0039
 IR Inten    --      1.1871                55.8953                34.1862

                     28                     29                     30
                      A                      A                      A
 Frequencies --   1167.2459              1192.6913              1221.7652
 Red. masses --      2.0937                 1.9880                 1.1907
 Frc consts  --      1.6807                 1.6661                 1.0472
 IR Inten    --      6.6418                 6.7694                 0.4195

                     31                     32                     33
                      A                      A                      A
 Frequencies --   1240.2561              1285.1152              1317.7048
 Red. masses --      1.3070                 1.2847                 1.3775
 Frc consts  --      1.1846                 1.2501                 1.4092
 IR Inten    --      1.6239                 4.4580                 0.1958

                     34                     35                     36
                      A                      A                      A
 Frequencies --   1336.6563              1353.7656              1386.2204
 Red. masses --      1.2411                 1.2454                 1.4166
 Frc consts  --      1.3064                 1.3447                 1.6038
 IR Inten    --      2.6695                 0.6829                 5.8894

                     37                     38                     39
                      A                      A                      A
 Frequencies --   1399.7208              1418.0160              1462.7439
 Red. masses --      1.5363                 1.2800                 1.2046
 Frc consts  --      1.7734                 1.5165                 1.5185
 IR Inten    --      3.4355                 1.0143                 1.5409

                     40                     41                     42
                      A                      A                      A
 Frequencies --   1482.1264              1492.4698              1505.5160
 Red. masses --      1.0435                 1.0626                 1.0826
 Frc consts  --      1.3505                 1.3946                 1.4458
 IR Inten    --      5.3049                13.0425                 0.0681

                     43                     44                     45
                      A                      A                      A
 Frequencies --   1520.2402              1703.6775              1751.4558
 Red. masses --      1.0938                 4.5472                 7.7043
 Frc consts  --      1.4895                 7.7763                13.9246
 IR Inten    --      1.0378                20.7099                 1.2401

                     46                     47                     48
                      A                      A                      A
 Frequencies --   2953.9396              2962.5689              2976.5348
 Red. masses --      1.0717                 1.0733                 1.0796
 Frc consts  --      5.5096                 5.5499                 5.6356
 IR Inten    --     55.5046                72.1319                26.1128

                     49                     50                     51
                      A                      A                      A
 Frequencies --   3022.4398              3043.9954              3065.2076
 Red. masses --      1.0366                 1.0896                 1.0992
 Frc consts  --      5.5792                 5.9483                 6.0846
 IR Inten    --     24.9445                24.9474                10.4628

                     52                     53                     54
                      A                      A                      A
 Frequencies --   3086.0481              3094.5661              3135.9670
 Red. masses --      1.0919                 1.0999                 1.0588
 Frc consts  --      6.1269                 6.2061                 6.1348
 IR Inten    --     38.0914                21.6569                13.7488

                     55                     56                     57
                      A                      A                      A
 Frequencies --   3148.1076              3155.3859              3216.1710
 Red. masses --      1.0906                 1.0887                 1.1144
 Frc consts  --      6.3679                 6.3864                 6.7914
 IR Inten    --      1.0092                10.3618                12.3152

 - Thermochemistry -
 -------------------
 Temperature   298.150 Kelvin.  Pressure   1.00000 Atm.
 Atom     1 has atomic number  1 and mass   1.00783

 Molecular mass:   124.08882 amu.
 Principal axes and moments of inertia in atomic units:
                           1         2         3
     Eigenvalues --   836.418001358.949082068.72018
           X            0.12799   0.97811  -0.16405
           Y            0.92027  -0.17880  -0.34804
           Z            0.36975   0.10643   0.92301
 This molecule is an asymmetric top.
 Rotational symmetry number  1.
 Warning -- assumption of classical behavior for rotation
           may cause significant error
 Rotational temperatures (Kelvin)      0.10355     0.06374     0.04187
 Rotational constants (GHZ):           2.15770     1.32804     0.87240
 Zero-point vibrational energy     476697.0 (Joules/Mol)
                                  113.93331 (Kcal/Mol)
 Warning -- explicit consideration of  12 degrees of freedom as
           vibrations may cause significant error
 Vibrational temperatures:     70.31   112.12   184.85   256.80   265.53
          (Kelvin)            280.87   346.42   462.69   621.59   700.95
                              765.73   824.67   927.83  1004.64  1145.21
                             1241.02  1350.75  1352.60  1376.95  1424.51
                             1453.02  1466.24  1490.18  1514.15  1533.01
                             1559.66  1588.99  1679.41  1716.02  1757.85
                             1784.45  1848.99  1895.88  1923.15  1947.77
                             1994.46  2013.89  2040.21  2104.56  2132.45
                             2147.33  2166.10  2187.29  2451.21  2519.95
                             4250.06  4262.48  4282.57  4348.62  4379.63
                             4410.15  4440.13  4452.39  4511.96  4529.42
                             4539.90  4627.35

 Zero-point correction=                           0.181564 (Hartree/Particle)
 Thermal correction to Energy=                    0.191162
 Thermal correction to Enthalpy=                  0.192106
 Thermal correction to Gibbs Free Energy=         0.146337
 Sum of electronic and zero-point Energies=           -387.215483
 Sum of electronic and thermal Energies=              -387.205886
 Sum of electronic and thermal Enthalpies=            -387.204941
 Sum of electronic and thermal Free Energies=         -387.250711

                     E (Thermal)             CV                S
                      KCal/Mol        Cal/Mol-Kelvin    Cal/Mol-Kelvin
 Total                  119.956             34.850             96.330
 Electronic               0.000              0.000              0.000
 Translational            0.889              2.981             40.361
 Rotational               0.889              2.981             29.243
 Vibrational            118.179             28.888             26.726
 Vibration     1          0.595              1.978              4.863
 Vibration     2          0.599              1.964              3.942
 Vibration     3          0.611              1.925              2.969
 Vibration     4          0.629              1.869              2.344
 Vibration     5          0.631              1.861              2.282
 Vibration     6          0.636              1.847              2.178
 Vibration     7          0.658              1.778              1.797
 Vibration     8          0.707              1.632              1.302
 Vibration     9          0.793              1.400              0.852
 Vibration    10          0.843              1.278              0.691
 Vibration    11          0.887              1.179              0.582
 Vibration    12          0.929              1.089              0.498

                       ! Non-Optimized Parameters !

 1\1\GINC-BHC0034\Freq\RB3LYP\def2TZVP\C8H12O1\DHANAWAY\11-Jun-2022\1\\
 #N Geom=AllCheck Guess=TCheck SCRF=Check GenChk RB3LYP/def2TZVP Freq\\
 int_zmat_initalOpt\\0,1\H\C,1,R2\C,2,R3,1,A3\O,2,R4,1,A4,3,D4,0\H,2,R5
 ,1,A5,3,D5,0\C,4,R6,2,A6,1,D6,0\C,3,R7,2,A7,1,D7,0\C,3,R8,2,A8,7,D8,0\
 H,6,R9,4,A9,2,D9,0\H,6,R10,4,A10,9,D10,0\C,7,R11,3,A11,2,D11,0\H,7,R12
 ,3,A12,11,D12,0\H,8,R13,3,A13,2,D13,0\C,8,R14,3,A14,13,D14,0\C,11,R15,
 7,A15,3,D15,0\H,11,R16,7,A16,15,D16,0\H,14,R17,8,A17,3,D17,0\H,14,R18,
 8,A18,17,D18,0\H,14,R19,8,A19,17,D19,0\H,15,R20,11,A20,7,D20,0\H,15,R2

 Normal termination of Gaussian 16 at Sat Jun 11 00:46:53 2022.
