 Gaussian 16, Revision A.03,
 Gaussian 16:  ES64L-G16RevA.03 25-Dec-2016

 ----------------------------------------------------------------------
 # Opt=(TS, CalcFC, noeigentest, Z-matrix, MaxStep=10) geom=allcheckpoi
 nt guess=read Field=read NoSymm B3LYP/Def2TZVP freq=noraman pop=none
 ----------------------------------------------------------------------

 Structure from the checkpoint file:  "checkpoint.chk"
 -----------------
 ts_zmat_initalOpt
 -----------------
 Charge =  0 Multiplicity = 1

 SCF Done:  E(RB3LYP) =  -387.294789881     A.U. after   11 cycles
 SCF Done:  E(RB3LYP) =  -387.294824875     A.U. after   10 cycles
 Optimization completed.
    -- Stationary point found.
 Normal termination of Gaussian 16 at Sat Jun 11 00:43:23 2022.

 --------------------------------------------------------------------
 #N Geom=AllCheck Guess=TCheck SCRF=Check GenChk RB3LYP/def2TZVP Freq
 --------------------------------------------------------------------

 Structure from the checkpoint file:  "checkpoint.chk"
 -----------------
 ts_zmat_initalOpt
 -----------------
 Charge =  0 Multiplicity = 1

                          Input orientation:
 ---------------------------------------------------------------------
 Center     Atomic      Atomic             Coordinates (Angstroms)
 Number     Number       Type             X           Y           Z
 ---------------------------------------------------------------------
      1          1           0        0.000000    0.000000    0.000000
      2          6           0        0.000000    0.000000    1.095910
      3          6           0        1.360709    0.000000    1.632550
      4          8           0       -0.707461    1.190113    1.498221
      5          1           0       -0.560133   -0.880704    1.433136
      6          6           0       -0.051810    1.865905    2.590899
      7          6           0        2.607059    0.020369    1.538850
      8          6           0        0.588309    0.860746    3.495624
      9          1           0       -0.854865    2.405239    3.102231
     10          1           0        0.669115    2.598418    2.214654
     11          6           0        3.803891   -0.263379    0.710606
     12          6           0        1.757730    0.954271    4.224805
     13          1           0       -0.141697    0.153441    3.886020
     14          1           0        3.533871   -0.599657   -0.292978
     15          1           0        4.419199   -1.036089    1.176443
     16          1           0        4.433356    0.624977    0.623474
     17          6           0        2.946545    1.526783    3.740621
     18          1           0        1.869678    0.236129    5.030931
     19          1           0        2.904593    2.427575    3.135057
     20          1           0        3.058211    0.649230    2.726952
     21          1           0        3.831084    1.467839    4.365045
 ---------------------------------------------------------------------

 SCF Done:  E(RB3LYP) =  -387.294824875     A.U. after    1 cycles

 Isotropic polarizability for W=    0.000000      105.71 Bohr**3.
 End of Minotr F.D. properties file   721 does not exist.

 ******    1 imaginary frequencies (negative Signs) ******

                      1                      2                      3
                      A                      A                      A
 Frequencies --  -1175.9215               111.6406               126.3377
 Red. masses --      1.4668                 2.8037                 1.0687
 Frc consts  --      1.1950                 0.0206                 0.0100
 IR Inten    --      1.6856                 0.9512                 0.0149

                      4                      5                      6
                      A                      A                      A
 Frequencies --    157.0249               199.6364               213.0416
 Red. masses --      3.0560                 2.4286                 2.6006
 Frc consts  --      0.0444                 0.0570                 0.0695
 IR Inten    --      6.4783                 2.7834                 3.2262

                      7                      8                      9
                      A                      A                      A
 Frequencies --    260.5352               276.9951               354.7045
 Red. masses --      2.6635                 3.6654                 3.6542
 Frc consts  --      0.1065                 0.1657                 0.2709
 IR Inten    --      0.6680                 0.8609                 1.1343

                     10                     11                     12
                      A                      A                      A
 Frequencies --    411.4749               421.9962               483.8003
 Red. masses --      3.1861                 2.7162                 3.9901
 Frc consts  --      0.3178                 0.2850                 0.5503
 IR Inten    --      0.0773                 3.4002                 1.4452

                     13                     14                     15
                      A                      A                      A
 Frequencies --    567.7078               588.6408               647.6342
 Red. masses --      2.7654                 3.4240                 3.5284
 Frc consts  --      0.5251                 0.6990                 0.8719
 IR Inten    --      0.4376                 6.0714                 1.8814

                     16                     17                     18
                      A                      A                      A
 Frequencies --    721.7709               851.4319               857.7696
 Red. masses --      1.4998                 2.4943                 1.3550
 Frc consts  --      0.4603                 1.0654                 0.5874
 IR Inten    --     19.5404                 4.3222                22.6665

                     19                     20                     21
                      A                      A                      A
 Frequencies --    885.5070               960.9772              1010.0941
 Red. masses --      4.5392                 1.9123                 3.1829
 Frc consts  --      2.0971                 1.0405                 1.9134
 IR Inten    --     46.1611                10.6323                44.8076

                     22                     23                     24
                      A                      A                      A
 Frequencies --   1019.9414              1029.5412              1040.3875
 Red. masses --      1.5767                 1.5621                 1.8731
 Frc consts  --      0.9664                 0.9756                 1.1945
 IR Inten    --      9.5637                 2.2866                31.4593

                     25                     26                     27
                      A                      A                      A
 Frequencies --   1055.8814              1067.7998              1070.8177
 Red. masses --      1.4159                 1.4670                 1.6730
 Frc consts  --      0.9301                 0.9855                 1.1302
 IR Inten    --      5.4630                13.3322                 1.8750

                     28                     29                     30
                      A                      A                      A
 Frequencies --   1124.6805              1144.6050              1199.5349
 Red. masses --      1.9606                 2.4831                 1.3410
 Frc consts  --      1.4611                 1.9167                 1.1368
 IR Inten    --      8.7271                13.2892                 2.5688

                     31                     32                     33
                      A                      A                      A
 Frequencies --   1225.4784              1247.7523              1301.8031
 Red. masses --      1.2420                 1.1858                 1.0844
 Frc consts  --      1.0990                 1.0877                 1.0828
 IR Inten    --     13.6087                10.8306                11.0478

                     34                     35                     36
                      A                      A                      A
 Frequencies --   1331.7414              1348.0863              1374.7230
 Red. masses --      1.2220                 1.2347                 1.3089
 Frc consts  --      1.2769                 1.3220                 1.4574
 IR Inten    --      3.0515                 5.6242                34.3846

                     37                     38                     39
                      A                      A                      A
 Frequencies --   1412.4227              1435.8463              1460.3508
 Red. masses --      1.2047                 1.1123                 1.2252
 Frc consts  --      1.4160                 1.3511                 1.5395
 IR Inten    --      3.4075                 2.5527                 0.5049

                     40                     41                     42
                      A                      A                      A
 Frequencies --   1479.2573              1486.4970              1506.7822
 Red. masses --      1.0428                 1.0453                 1.0939
 Frc consts  --      1.3444                 1.3609                 1.4633
 IR Inten    --      9.1334                12.2206                 0.2843

                     43                     44                     45
                      A                      A                      A
 Frequencies --   1513.5390              1518.3200              1620.4089
 Red. masses --      1.0965                 1.4900                 4.0166
 Frc consts  --      1.4799                 2.0238                 6.2138
 IR Inten    --      2.7002                 4.0517                20.8153

                     46                     47                     48
                      A                      A                      A
 Frequencies --   2047.2843              2983.8147              3007.8720
 Red. masses --      8.5836                 1.0594                 1.1002
 Frc consts  --     21.1972                 5.5571                 5.8645
 IR Inten    --     30.7471                93.1664                48.2476

                     49                     50                     51
                      A                      A                      A
 Frequencies --   3011.7755              3024.8722              3040.6933
 Red. masses --      1.0572                 1.0345                 1.1064
 Frc consts  --      5.6499                 5.5767                 6.0272
 IR Inten    --     54.8020                38.5068                35.6861

                     52                     53                     54
                      A                      A                      A
 Frequencies --   3085.6346              3087.2206              3101.7167
 Red. masses --      1.1015                 1.1009                 1.0860
 Frc consts  --      6.1791                 6.1821                 6.1558
 IR Inten    --     12.8183                 8.5757                27.3868

                     55                     56                     57
                      A                      A                      A
 Frequencies --   3110.6606              3147.8334              3191.5285
 Red. masses --      1.0594                 1.0895                 1.1104
 Frc consts  --      6.0395                 6.3605                 6.6636
 IR Inten    --      6.7817                 6.6682                 4.0977

 - Thermochemistry -
 -------------------
 Temperature   298.150 Kelvin.  Pressure   1.00000 Atm.
 Atom     1 has atomic number  1 and mass   1.00783

 Molecular mass:   124.08882 amu.
 Principal axes and moments of inertia in atomic units:
                           1         2         3
     Eigenvalues --   904.888101211.490321880.01949
           X            0.95837   0.21784   0.18458
           Y           -0.25582   0.36806   0.89391
           Z           -0.12679   0.90392  -0.40847
 This molecule is an asymmetric top.
 Rotational symmetry number  1.
 Warning -- assumption of classical behavior for rotation
           may cause significant error
 Rotational temperatures (Kelvin)      0.09572     0.07149     0.04607
 Rotational constants (GHZ):           1.99444     1.48969     0.95996
    1 imaginary frequencies ignored.
 Zero-point vibrational energy     460357.9 (Joules/Mol)
                                  110.02817 (Kcal/Mol)
 Warning -- explicit consideration of  13 degrees of freedom as
           vibrations may cause significant error
 Vibrational temperatures:    160.63   181.77   225.92   287.23   306.52
          (Kelvin)            374.85   398.53   510.34   592.02   607.16
                              696.08   816.80   846.92   931.80  1038.47
                             1225.02  1234.14  1274.05  1382.63  1453.30
                             1467.47  1481.28  1496.89  1519.18  1536.33
                             1540.67  1618.16  1646.83  1725.86  1763.19
                             1795.24  1873.00  1916.08  1939.60  1977.92
                             2032.16  2065.86  2101.12  2128.32  2138.74
                             2167.92  2177.64  2184.52  2331.41  2945.59
                             4293.04  4327.66  4333.27  4352.12  4374.88
                             4439.54  4441.82  4462.68  4475.55  4529.03
                             4591.90

 Zero-point correction=                           0.175341 (Hartree/Particle)
 Thermal correction to Energy=                    0.184613
 Thermal correction to Enthalpy=                  0.185557
 Thermal correction to Gibbs Free Energy=         0.141596
 Sum of electronic and zero-point Energies=           -387.119484
 Sum of electronic and thermal Energies=              -387.110212
 Sum of electronic and thermal Enthalpies=            -387.109268
 Sum of electronic and thermal Free Energies=         -387.153229

                     E (Thermal)             CV                S
                      KCal/Mol        Cal/Mol-Kelvin    Cal/Mol-Kelvin
 Total                  115.846             35.163             92.524
 Electronic               0.000              0.000              0.000
 Translational            0.889              2.981             40.361
 Rotational               0.889              2.981             29.112
 Vibrational            114.069             29.201             23.051
 Vibration     1          0.607              1.940              3.240
 Vibration     2          0.611              1.927              3.001
 Vibration     3          0.621              1.895              2.585
 Vibration     4          0.638              1.840              2.136
 Vibration     5          0.644              1.821              2.017
 Vibration     6          0.669              1.745              1.658
 Vibration     7          0.678              1.716              1.552
 Vibration     8          0.731              1.566              1.145
 Vibration     9          0.775              1.445              0.921
 Vibration    10          0.784              1.422              0.885
 Vibration    11          0.840              1.286              0.700
 Vibration    12          0.924              1.101              0.509
 Vibration    13          0.946              1.056              0.470

 Optimization completed.
    -- Stationary point found.

 1\1\GINC-BHC0108\Freq\RB3LYP\def2TZVP\C8H12O1\DHANAWAY\11-Jun-2022\1\\
 #N Geom=AllCheck Guess=TCheck SCRF=Check GenChk RB3LYP/def2TZVP Freq\\
 ts_zmat_initalOpt\\0,1\H\C,1,R2\C,2,R3,1,A3\O,2,R4,1,A4,3,D4,0\H,2,R5,
 1,A5,3,D5,0\C,4,R6,2,A6,1,D6,0\C,3,R7,2,A7,1,D7,0\C,6,R8,4,A8,2,D8,0\H
 ,6,R9,4,A9,8,D9,0\H,6,R10,4,A10,8,D10,0\C,7,R11,3,A11,2,D11,0\C,8,R12,
 6,A12,4,D12,0\H,8,R13,6,A13,12,D13,0\H,11,R14,7,A14,3,D14,0\H,11,R15,7
 ,A15,14,D15,0\H,11,R16,7,A16,14,D16,0\C,12,R17,8,A17,6,D17,0\H,12,R18,
 8,A18,17,D18,0\H,17,R19,12,A19,8,D19,0\H,17,R20,12,A20,19,D20,0\H,17,R

 Normal termination of Gaussian 16 at Sat Jun 11 00:56:21 2022.
