 Gaussian 16, Revision A.03,
 Gaussian 16:  ES64L-G16RevA.03 25-Dec-2016

 -------------------------------------------------------------
 # Opt=(Z-matrix, MaxStep=10) B3LYP/Def2TZVP Field=read NoSymm
 -------------------------------------------------------------

 ------------------
 int_zmat_initalOpt
 ------------------
 Symbolic Z-matrix:
 Charge =  0 Multiplicity = 1

 SCF Done:  E(RB3LYP) =  -269.422771583     A.U. after   13 cycles
 SCF Done:  E(RB3LYP) =  -269.422784555     A.U. after    8 cycles
 SCF Done:  E(RB3LYP) =  -269.422790004     A.U. after    8 cycles
 SCF Done:  E(RB3LYP) =  -269.422791484     A.U. after    8 cycles
 SCF Done:  E(RB3LYP) =  -269.422791986     A.U. after    8 cycles
 Optimization completed.
    -- Stationary point found.

                         Z-Matrix orientation:
 ---------------------------------------------------------------------
 Center     Atomic      Atomic             Coordinates (Angstroms)
 Number     Number       Type             X           Y           Z
 ---------------------------------------------------------------------
      1          1           0        0.000000    0.000000    0.000000
      2          6           0        0.000000    0.000000    1.082006
      3          6           0        1.124994    0.000000    1.802736
      4          6           0       -1.311661   -0.042079    1.810287
      5          1           0        2.097554    0.005857    1.326811
      6          6           0        1.040347    0.088576    3.251765
      7          8           0       -1.255113    0.657203    3.073419
      8          1           0       -2.112026    0.438833    1.250354
      9          1           0       -1.615764   -1.080820    2.018658
     10          1           0        1.914941   -0.014811    3.876714
     11          6           0       -0.126913    0.463886    3.795126
     12          1           0       -0.259183    0.728957    4.836279
 ---------------------------------------------------------------------

 Alpha  occ. eigenvalues --  -19.16979 -10.24095 -10.23983 -10.18531 -10.17958
 Alpha  occ. eigenvalues --  -10.17533  -1.07902  -0.82128  -0.78298  -0.67359
 Alpha  occ. eigenvalues --   -0.63447  -0.54185  -0.51872  -0.49376  -0.47157
 Alpha  occ. eigenvalues --   -0.44576  -0.41716  -0.38621  -0.36920  -0.33854
 Alpha  occ. eigenvalues --   -0.30959  -0.21869
 Alpha virt. eigenvalues --   -0.04114   0.03829   0.04719   0.06727   0.07055
 Alpha virt. eigenvalues --    0.08617   0.09001   0.10117   0.12119   0.15379
 Alpha virt. eigenvalues --    0.16883   0.18633   0.20545   0.21572   0.21912

 Mulliken charges:
               1
     1  H    0.122818
     2  C   -0.175162
     3  C   -0.095436
     4  C    0.037792
     5  H    0.120877
     6  C   -0.165195
     7  O   -0.271369
     8  H    0.115126
     9  H    0.065017
    10  H    0.108639
    11  C    0.024562
    12  H    0.112331
 Sum of Mulliken charges =  -0.00000

 Dipole moment (field-independent basis, Debye):
    X=              0.4029    Y=             -0.2770    Z=             -0.7716  Tot=              0.9135
 Quadrupole moment (field-independent basis, Debye-Ang):
   XX=            -34.3311   YY=            -38.8081   ZZ=            -35.8598
   XY=              0.8146   XZ=              2.9815   YZ=             -0.3135

 Normal termination of Gaussian 16 at Fri Mar 18 11:04:26 2022.
