 Gaussian 16, Revision A.03,
 Gaussian 16:  ES64L-G16RevA.03 25-Dec-2016

 ----------------------------------------------------------------------
 # Opt=(TS, CalcFC, noeigentest, Z-matrix, MaxStep=10) geom=allcheckpoi
 nt guess=read Field=read NoSymm B3LYP/Def2TZVP freq=noraman pop=none
 ----------------------------------------------------------------------

 Structure from the checkpoint file:  "checkpoint.chk"
 -----------------
 ts_zmat_initalOpt
 -----------------
 Charge =  0 Multiplicity = 1

 SCF Done:  E(RB3LYP) =  -210.179145277     A.U. after   10 cycles
 SCF Done:  E(RB3LYP) =  -210.179151766     A.U. after    8 cycles
 Optimization completed.
    -- Stationary point found.
 Normal termination of Gaussian 16 at Fri Jun 10 22:58:05 2022.

 --------------------------------------------------------------------
 #N Geom=AllCheck Guess=TCheck SCRF=Check GenChk RB3LYP/def2TZVP Freq
 --------------------------------------------------------------------

 Structure from the checkpoint file:  "checkpoint.chk"
 -----------------
 ts_zmat_initalOpt
 -----------------
 Charge =  0 Multiplicity = 1

                          Input orientation:
 ---------------------------------------------------------------------
 Center     Atomic      Atomic             Coordinates (Angstroms)
 Number     Number       Type             X           Y           Z
 ---------------------------------------------------------------------
      1          1           0        0.000000    0.000000    0.000000
      2          6           0        0.000000    0.000000    1.078337
      3          6           0        1.109726    0.000000    1.918748
      4          6           0       -1.128626   -0.003322    1.904460
      5          1           0        2.143723   -0.018246    1.608944
      6          1           0       -1.198018   -1.000574    2.722874
      7          6           0        0.642642   -0.024654    3.232358
      8          7           0       -0.706668    0.022749    3.298476
      9          1           0       -2.155506    0.229998    1.668544
     10          1           0        1.220798   -0.119755    4.139895
 ---------------------------------------------------------------------

 SCF Done:  E(RB3LYP) =  -210.179151766     A.U. after    1 cycles

 Isotropic polarizability for W=    0.000000       50.47 Bohr**3.
 End of Minotr F.D. properties file   721 does not exist.

 ******    1 imaginary frequencies (negative Signs) ******

                      1                      2                      3
                      A                      A                      A
 Frequencies --  -1490.3632               589.7861               639.9637
 Red. masses --      1.2129                 2.2402                 3.8610
 Frc consts  --      1.5873                 0.4591                 0.9317
 IR Inten    --    104.4307                 2.4015                 3.4941

                      4                      5                      6
                      A                      A                      A
 Frequencies --    752.8530               840.4551               872.7395
 Red. masses --      1.1260                 1.4291                 2.3199
 Frc consts  --      0.3760                 0.5948                 1.0411
 IR Inten    --     92.2199                 5.0383                16.6043

                      7                      8                      9
                      A                      A                      A
 Frequencies --    881.5992               891.0444               939.4225
 Red. masses --      2.0655                 3.5402                 1.6516
 Frc consts  --      0.9458                 1.6561                 0.8588
 IR Inten    --      7.4712                 4.4697                 6.2481

                     10                     11                     12
                      A                      A                      A
 Frequencies --    954.7918              1066.6097              1091.7094
 Red. masses --      2.4376                 1.3718                 1.2460
 Frc consts  --      1.3092                 0.9195                 0.8749
 IR Inten    --     33.3812                10.8722                 1.2803

                     13                     14                     15
                      A                      A                      A
 Frequencies --   1135.6202              1175.8264              1251.0530
 Red. masses --      2.2099                 1.1442                 1.7649
 Frc consts  --      1.6792                 0.9320                 1.6275
 IR Inten    --      2.3160                25.6499                 1.7164

                     16                     17                     18
                      A                      A                      A
 Frequencies --   1312.4149              1432.0172              1483.1320
 Red. masses --      1.8386                 2.8752                 3.1520
 Frc consts  --      1.8658                 3.4739                 4.0851
 IR Inten    --      2.3667                 7.6180                 3.1396

                     19                     20                     21
                      A                      A                      A
 Frequencies --   1510.5678              2182.5758              3207.3844
 Red. masses --      3.5477                 1.0725                 1.0894
 Frc consts  --      4.7695                 3.0101                 6.6029
 IR Inten    --      1.5785                15.9342                 8.9074

                     22                     23                     24
                      A                      A                      A
 Frequencies --   3226.8120              3231.3057              3249.5991
 Red. masses --      1.0943                 1.0935                 1.1040
 Frc consts  --      6.7135                 6.7271                 6.8687
 IR Inten    --      6.9838                 1.4670                 0.5088

 - Thermochemistry -
 -------------------
 Temperature   298.150 Kelvin.  Pressure   1.00000 Atm.
 Atom     1 has atomic number  1 and mass   1.00783

 Molecular mass:    67.04220 amu.
 Principal axes and moments of inertia in atomic units:
                           1         2         3
     Eigenvalues --   196.15408 204.03946 392.55933
           X           -0.38614   0.92244  -0.00203
           Y           -0.01302  -0.00325   0.99991
           Z            0.92235   0.38613   0.01326
 This molecule is an asymmetric top.
 Rotational symmetry number  1.
 Rotational temperatures (Kelvin)      0.44156     0.42450     0.22064
 Rotational constants (GHZ):           9.20063     8.84506     4.59737
    1 imaginary frequencies ignored.
 Zero-point vibrational energy     202882.4 (Joules/Mol)
                                   48.49005 (Kcal/Mol)
 Warning -- explicit consideration of   1 degrees of freedom as
           vibrations may cause significant error
 Vibrational temperatures:    848.57   920.76  1083.19  1209.23  1255.68
          (Kelvin)           1268.42  1282.01  1351.62  1373.73  1534.61
                             1570.73  1633.90  1691.75  1799.99  1888.27
                             2060.35  2133.90  2173.37  3140.24  4614.71
                             4642.66  4649.13  4675.45

 Zero-point correction=                           0.077274 (Hartree/Particle)
 Thermal correction to Energy=                    0.080971
 Thermal correction to Enthalpy=                  0.081915
 Thermal correction to Gibbs Free Energy=         0.050989
 Sum of electronic and zero-point Energies=           -210.101878
 Sum of electronic and thermal Energies=              -210.098181
 Sum of electronic and thermal Enthalpies=            -210.097236
 Sum of electronic and thermal Free Energies=         -210.128163

                     E (Thermal)             CV                S
                      KCal/Mol        Cal/Mol-Kelvin    Cal/Mol-Kelvin
 Total                   50.810             13.373             65.089
 Electronic               0.000              0.000              0.000
 Translational            0.889              2.981             38.526
 Rotational               0.889              2.981             24.267
 Vibrational             49.033              7.412              2.297
 Vibration     1          0.947              1.054              0.468

 Optimization completed.
    -- Stationary point found.
 Normal termination of Gaussian 16 at Fri Jun 10 22:59:33 2022.
