 Gaussian 16, Revision A.03,
 Gaussian 16:  ES64L-G16RevA.03 25-Dec-2016

 ------------------------------------------
 # Opt B3LYP/Def2TZVP freq=noraman pop=none
 ------------------------------------------

 -------------
 int_initalOpt
 -------------
 Symbolic Z-matrix:
 Charge =  0 Multiplicity = 1

 SCF Done:  E(RB3LYP) =  -210.253440123     A.U. after   12 cycles
 Optimization completed.
    -- Stationary point found.
 Normal termination of Gaussian 16 at Fri Jun 10 10:42:39 2022.

 --------------------------------------------------------------------
 #N Geom=AllCheck Guess=TCheck SCRF=Check GenChk RB3LYP/def2TZVP Freq
 --------------------------------------------------------------------

 Structure from the checkpoint file:  "checkpoint.chk"
 -------------
 int_initalOpt
 -------------
 Charge =  0 Multiplicity = 1

                         Standard orientation:
 ---------------------------------------------------------------------
 Center     Atomic      Atomic             Coordinates (Angstroms)
 Number     Number       Type             X           Y           Z
 ---------------------------------------------------------------------
      1          6           0        0.980221   -0.710291    0.000000
      2          6           0        0.980215    0.710298    0.000001
      3          6           0       -0.330831    1.121504   -0.000002
      4          7           0       -1.118528   -0.000004    0.000001
      5          6           0       -0.330823   -1.121507   -0.000002
      6          1           0       -0.762374   -2.107373   -0.000003
      7          1           0        1.841973   -1.356623    0.000001
      8          1           0        1.841963    1.356636    0.000001
      9          1           0       -0.762389    2.107368   -0.000004
     10          1           0       -2.122171   -0.000007    0.000009
 ---------------------------------------------------------------------

 SCF Done:  E(RB3LYP) =  -210.253440123     A.U. after    1 cycles

 Isotropic polarizability for W=    0.000000       49.83 Bohr**3.
 End of Minotr F.D. properties file   721 does not exist.

                      1                      2                      3
                      A                      A                      A
 Frequencies --    468.1171               628.7614               641.6242
 Red. masses --      1.4224                 3.2070                 2.3036
 Frc consts  --      0.1836                 0.7470                 0.5587
 IR Inten    --     72.4532                 0.0000                 0.1409

                      4                      5                      6
                      A                      A                      A
 Frequencies --    684.4426               727.1593               823.7595
 Red. masses --      1.3001                 1.1982                 1.2349
 Frc consts  --      0.3589                 0.3733                 0.4937
 IR Inten    --      0.0000               156.4348                 1.8175

                      7                      8                      9
                      A                      A                      A
 Frequencies --    867.6731               881.8964               903.4833
 Red. masses --      1.2863                 5.2227                 3.9894
 Frc consts  --      0.5706                 2.3932                 1.9187
 IR Inten    --      0.0000                 1.4929                 0.2909

                     10                     11                     12
                      A                      A                      A
 Frequencies --   1035.3717              1068.8232              1092.7364
 Red. masses --      1.4335                 1.3882                 1.5610
 Frc consts  --      0.9054                 0.9344                 1.0982
 IR Inten    --     30.9537                27.2511                 7.6591

                     13                     14                     15
                      A                      A                      A
 Frequencies --   1158.8862              1175.2907              1316.4041
 Red. masses --      1.2657                 3.7052                 1.3752
 Frc consts  --      1.0015                 3.0154                 1.4041
 IR Inten    --      2.1393                 2.1232                 1.0488

                     16                     17                     18
                      A                      A                      A
 Frequencies --   1418.4911              1449.5618              1501.2715
 Red. masses --      4.2340                 2.9861                 2.6512
 Frc consts  --      5.0194                 3.6968                 3.5206
 IR Inten    --      3.7090                 6.3827                 7.6157

                     19                     20                     21
                      A                      A                      A
 Frequencies --   1576.1477              3238.4590              3249.4615
 Red. masses --      2.9804                 1.0885                 1.0931
 Frc consts  --      4.3623                 6.7260                 6.8007
 IR Inten    --      3.0145                 2.7722                 3.2155

                     22                     23                     24
                      A                      A                      A
 Frequencies --   3265.0754              3270.5488              3668.0932
 Red. masses --      1.0987                 1.1057                 1.0806
 Frc consts  --      6.9010                 6.9684                 8.5661
 IR Inten    --      2.5432                 0.0140                65.5863

 - Thermochemistry -
 -------------------
 Temperature   298.150 Kelvin.  Pressure   1.00000 Atm.
 Atom     1 has atomic number  6 and mass  12.00000

 Molecular mass:    67.04220 amu.
 Principal axes and moments of inertia in atomic units:
                           1         2         3
     Eigenvalues --   196.25238 199.10483 395.35721
           X            1.00000  -0.00000  -0.00000
           Y            0.00000   1.00000  -0.00000
           Z            0.00000   0.00000   1.00000
 This molecule is an asymmetric top.
 Rotational symmetry number  1.
 Rotational temperatures (Kelvin)      0.44134     0.43502     0.21908
 Rotational constants (GHZ):           9.19602     9.06428     4.56484
 Zero-point vibrational energy     215995.0 (Joules/Mol)
                                   51.62404 (Kcal/Mol)
 Warning -- explicit consideration of   1 degrees of freedom as
           vibrations may cause significant error
 Vibrational temperatures:    673.52   904.65   923.15   984.76  1046.22
          (Kelvin)           1185.21  1248.39  1268.85  1299.91  1489.67
                             1537.80  1572.20  1667.38  1690.98  1894.01
                             2040.89  2085.60  2159.99  2267.73  4659.42
                             4675.25  4697.72  4705.59  5277.57

 Zero-point correction=                           0.082268 (Hartree/Particle)
 Thermal correction to Energy=                    0.086254
 Thermal correction to Enthalpy=                  0.087198
 Thermal correction to Gibbs Free Energy=         0.055873
 Sum of electronic and zero-point Energies=           -210.171172
 Sum of electronic and thermal Energies=              -210.167186
 Sum of electronic and thermal Enthalpies=            -210.166242
 Sum of electronic and thermal Free Energies=         -210.197567

                     E (Thermal)             CV                S
                      KCal/Mol        Cal/Mol-Kelvin    Cal/Mol-Kelvin
 Total                   54.125             14.865             65.929
 Electronic               0.000              0.000              0.000
 Translational            0.889              2.981             38.526
 Rotational               0.889              2.981             24.250
 Vibrational             52.348              8.903              3.153
 Vibration     1          0.825              1.321              0.743

 Optimization completed.
    -- Stationary point found.
 Normal termination of Gaussian 16 at Fri Jun 10 10:44:10 2022.
