 Gaussian 16, Revision A.03,
 Gaussian 16:  ES64L-G16RevA.03 25-Dec-2016

 --------------------------------------------------------------------
 # Opt=(TS, CalcFC, noeigentest) B3LYP/Def2TZVP freq=noraman pop=none
 --------------------------------------------------------------------

 ------------
 ts_initalOpt
 ------------
 Symbolic Z-matrix:
 Charge =  0 Multiplicity = 1

 SCF Done:  E(RB3LYP) =  -195.276143919     A.U. after   15 cycles
 Optimization completed.
    -- Stationary point found.
 Normal termination of Gaussian 16 at Fri Jun 10 10:31:40 2022.

 --------------------------------------------------------------------
 #N Geom=AllCheck Guess=TCheck SCRF=Check GenChk RB3LYP/def2TZVP Freq
 --------------------------------------------------------------------

 Structure from the checkpoint file:  "checkpoint.chk"
 ------------
 ts_initalOpt
 ------------
 Charge =  0 Multiplicity = 1

                         Standard orientation:
 ---------------------------------------------------------------------
 Center     Atomic      Atomic             Coordinates (Angstroms)
 Number     Number       Type             X           Y           Z
 ---------------------------------------------------------------------
      1          6           0       -1.354451   -0.315558    0.308431
      2          6           0       -0.137084   -1.043153   -0.196596
      3          6           0       -1.156494    1.049046   -0.169383
      4          1           0       -1.460350   -0.389820    1.393698
      5          1           0       -2.237876   -0.779037   -0.145285
      6          1           0       -0.970844    1.879931    0.493026
      7          1           0       -1.174537    1.240237   -1.232649
      8          6           0        1.160718   -0.582766   -0.014908
      9          1           0       -0.292088   -1.991357   -0.705041
     10          6           0        1.587615    0.715975    0.073677
     11          1           0        1.912314   -1.367253    0.104545
     12          1           0        1.109440    1.495412   -0.495258
     13          1           0        2.512119    0.970619    0.579631
 ---------------------------------------------------------------------

 SCF Done:  E(RB3LYP) =  -195.276143919     A.U. after    1 cycles

 Isotropic polarizability for W=    0.000000       74.71 Bohr**3.
 End of Minotr F.D. properties file   721 does not exist.

 ******    1 imaginary frequencies (negative Signs) ******

                      1                      2                      3
                      A                      A                      A
 Frequencies --   -421.0216               221.3209               257.5393
 Red. masses --      1.9605                 2.1792                 2.3375
 Frc consts  --      0.2047                 0.0629                 0.0913
 IR Inten    --      0.0563                 0.6755                 1.8425

                      4                      5                      6
                      A                      A                      A
 Frequencies --    374.8877               545.8033               582.7314
 Red. masses --      2.2960                 1.2815                 1.3122
 Frc consts  --      0.1901                 0.2249                 0.2625
 IR Inten    --      6.4229                 6.8779                 4.6053

                      7                      8                      9
                      A                      A                      A
 Frequencies --    652.2703               710.5033               763.2609
 Red. masses --      1.4295                 1.4040                 1.3007
 Frc consts  --      0.3583                 0.4176                 0.4465
 IR Inten    --     19.5746                28.9576                31.4638

                     10                     11                     12
                      A                      A                      A
 Frequencies --    784.5069               824.4430               900.2956
 Red. masses --      1.3116                 1.4758                 1.4615
 Frc consts  --      0.4756                 0.5910                 0.6979
 IR Inten    --     54.3911                 5.7248                 3.2794

                     13                     14                     15
                      A                      A                      A
 Frequencies --    929.0124              1029.9066              1063.6941
 Red. masses --      1.9058                 1.5599                 1.6623
 Frc consts  --      0.9691                 0.9748                 1.1082
 IR Inten    --      2.4811                 0.0701                12.5690

                     16                     17                     18
                      A                      A                      A
 Frequencies --   1127.3932              1153.1687              1220.3853
 Red. masses --      2.2631                 1.8824                 1.2528
 Frc consts  --      1.6948                 1.4749                 1.0994
 IR Inten    --     13.8648                 0.1628                 4.4769

                     19                     20                     21
                      A                      A                      A
 Frequencies --   1265.9198              1306.4089              1400.7264
 Red. masses --      1.2660                 1.3032                 1.3670
 Frc consts  --      1.1954                 1.3104                 1.5803
 IR Inten    --     15.5117                 6.5737                 3.9378

                     22                     23                     24
                      A                      A                      A
 Frequencies --   1424.0977              1482.0408              1497.5458
 Red. masses --      1.1087                 1.2457                 1.4694
 Frc consts  --      1.3248                 1.6120                 1.9415
 IR Inten    --     10.3988                 6.0829                 2.0419

                     25                     26                     27
                      A                      A                      A
 Frequencies --   1592.6790              3005.6847              3052.5279
 Red. masses --      4.0852                 1.0585                 1.1007
 Frc consts  --      6.1055                 5.6342                 6.0427
 IR Inten    --     15.6260                26.0436                13.1356

                     28                     29                     30
                      A                      A                      A
 Frequencies --   3060.6196              3128.5127              3145.2520
 Red. masses --      1.0832                 1.0871                 1.0639
 Frc consts  --      5.9783                 6.2690                 6.2012
 IR Inten    --     17.1141                25.3616                 4.4365

                     31                     32                     33
                      A                      A                      A
 Frequencies --   3166.3883              3258.5027              3270.5329
 Red. masses --      1.0515                 1.1060                 1.1185
 Frc consts  --      6.2117                 6.9190                 7.0490
 IR Inten    --      3.8579                 9.4099                 2.5843

 - Thermochemistry -
 -------------------
 Temperature   298.150 Kelvin.  Pressure   1.00000 Atm.
 Atom     1 has atomic number  6 and mass  12.00000

 Molecular mass:    68.06260 amu.
 Principal axes and moments of inertia in atomic units:
                           1         2         3
     Eigenvalues --   212.39039 401.74162 565.08653
           X            0.99978   0.02031   0.00576
           Y           -0.02032   0.99979   0.00124
           Z           -0.00573  -0.00136   0.99998
 This molecule is an asymmetric top.
 Rotational symmetry number  1.
 Rotational temperatures (Kelvin)      0.40781     0.21560     0.15328
 Rotational constants (GHZ):           8.49728     4.49229     3.19374
    1 imaginary frequencies ignored.
 Zero-point vibrational energy     288291.4 (Joules/Mol)
                                   68.90330 (Kcal/Mol)
 Warning -- explicit consideration of   5 degrees of freedom as
           vibrations may cause significant error
 Vibrational temperatures:    318.43   370.54   539.38   785.29   838.42
          (Kelvin)            938.47  1022.26  1098.16  1128.73  1186.19
                             1295.32  1336.64  1481.81  1530.42  1622.07
                             1659.15  1755.86  1821.38  1879.63  2015.33
                             2048.96  2132.33  2154.63  2291.51  4324.51
                             4391.91  4403.55  4501.23  4525.32  4555.73
                             4688.26  4705.57

 Zero-point correction=                           0.109804 (Hartree/Particle)
 Thermal correction to Energy=                    0.115097
 Thermal correction to Enthalpy=                  0.116041
 Thermal correction to Gibbs Free Energy=         0.081989
 Sum of electronic and zero-point Energies=           -195.166340
 Sum of electronic and thermal Energies=              -195.161047
 Sum of electronic and thermal Enthalpies=            -195.160102
 Sum of electronic and thermal Free Energies=         -195.194155

                     E (Thermal)             CV                S
                      KCal/Mol        Cal/Mol-Kelvin    Cal/Mol-Kelvin
 Total                   72.225             20.025             71.669
 Electronic               0.000              0.000              0.000
 Translational            0.889              2.981             38.571
 Rotational               0.889              2.981             25.381
 Vibrational             70.447             14.063              7.717
 Vibration     1          0.648              1.809              1.948
 Vibration     2          0.667              1.750              1.678
 Vibration     3          0.746              1.524              1.060
 Vibration     4          0.901              1.149              0.553
 Vibration     5          0.940              1.069              0.480

 Optimization completed.
    -- Stationary point found.
 Normal termination of Gaussian 16 at Fri Jun 10 10:33:53 2022.
