 Gaussian 16, Revision A.03,
 Gaussian 16:  ES64L-G16RevA.03 25-Dec-2016

 --------------------------
 # sp B3LYP/Def2TZVP NoSymm
 --------------------------

 ----------------------------------
 int_initalOptXYZ_aligned_AlignedSp
 ----------------------------------
 Symbolic Z-matrix:
 Charge =  0 Multiplicity = 1

                          Input orientation:
 ---------------------------------------------------------------------
 Center     Atomic      Atomic             Coordinates (Angstroms)
 Number     Number       Type             X           Y           Z
 ---------------------------------------------------------------------
      1          6           0        0.566344    1.041244   -0.034026
      2          6           0       -0.841705    0.863259    0.027557
      3          6           0       -1.087275   -0.488189   -0.007343
      4          7           0        0.121670   -1.128698   -0.087634
      5          6           0        1.135937   -0.207163   -0.104577
      6          1           0        2.166428   -0.511540   -0.164669
      7          1           0        1.100483    1.976665   -0.027389
      8          1           0       -1.588825    1.636723    0.090230
      9          1           0       -2.011109   -1.039602    0.018037
     10          1           0        0.245695   -2.123830   -0.127987
 ---------------------------------------------------------------------

 SCF Done:  E(RB3LYP) =  -210.253439480     A.U. after   12 cycles

 Alpha  occ. eigenvalues --  -14.35971 -10.18827 -10.18824 -10.15226 -10.15181
 Alpha  occ. eigenvalues --   -0.97700  -0.77291  -0.72071  -0.59105  -0.56575
 Alpha  occ. eigenvalues --   -0.54566  -0.43157  -0.42480  -0.40950  -0.39027
 Alpha  occ. eigenvalues --   -0.37654  -0.24775  -0.21672
 Alpha virt. eigenvalues --    0.02870   0.02882   0.06955   0.08053   0.08873
 Alpha virt. eigenvalues --    0.10058   0.10708   0.14188   0.17867   0.19525
 Alpha virt. eigenvalues --    0.20843   0.20869   0.21184   0.25813   0.26324

 Mulliken charges:
               1
     1  C   -0.169764
     2  C   -0.169803
     3  C   -0.060144
     4  N   -0.220225
     5  C   -0.060174
     6  H    0.128012
     7  H    0.104985
     8  H    0.104984
     9  H    0.128014
    10  H    0.214115
 Sum of Mulliken charges =  -0.00000

 Dipole moment (field-independent basis, Debye):
    X=              0.2358    Y=             -1.8921    Z=             -0.0767  Tot=              1.9083
 Quadrupole moment (field-independent basis, Debye-Ang):
   XX=            -27.1420   YY=            -23.8569   ZZ=            -34.0206
   XY=             -0.3664   XZ=             -0.3554   YZ=              0.4511

 Normal termination of Gaussian 16 at Fri Jun 10 01:43:36 2022.
