 Gaussian 16, Revision A.03,
 Gaussian 16:  ES64L-G16RevA.03 25-Dec-2016

 ----------------------------------------------------------------------
 # Opt=(TS, CalcFC, noeigentest, Z-matrix, MaxStep=10) geom=allcheckpoi
 nt guess=read Field=read NoSymm B3LYP/Def2TZVP
 ----------------------------------------------------------------------

 Structure from the checkpoint file:  "checkpoint.chk"
 -----------------
 ts_zmat_initalOpt
 -----------------
 Charge =  0 Multiplicity = 1

 SCF Done:  E(RB3LYP) =  -269.394168530     A.U. after   10 cycles

  Exact polarizability:   0.000   0.000   0.000   0.000   0.000   0.000
 Approx polarizability: 133.542  13.260  67.832  -2.898  -6.725 130.179

 SCF Done:  E(RB3LYP) =  -269.394188085     A.U. after   12 cycles
 Optimization completed.
    -- Stationary point found.

                         Z-Matrix orientation:
 ---------------------------------------------------------------------
 Center     Atomic      Atomic             Coordinates (Angstroms)
 Number     Number       Type             X           Y           Z
 ---------------------------------------------------------------------
      1          6           0        0.000000    0.000000    0.000000
      2          6           0        0.000000    0.000000    1.385459
      3          6           0        1.205842    0.000000   -0.715889
      4          1           0       -0.922221    0.169450   -0.546574
      5          1           0       -0.809930    0.451631    1.944247
      6          1           0        1.186810    0.028378   -1.796616
      7          6           0        2.370222    0.484172   -0.092298
      8          6           0        1.161690   -0.433946    2.020587
      9          1           0        3.063726    1.032541   -0.741827
     10          8           0        2.650732    0.498997    1.139507
     11          1           0        1.331017   -0.222014    3.068818
     12          1           0        1.647340   -1.325739    1.648973
 ---------------------------------------------------------------------

 Alpha  occ. eigenvalues --  -19.15355 -10.26281 -10.23168 -10.20378 -10.17960
 Alpha  occ. eigenvalues --  -10.17609  -1.05626  -0.83727  -0.76629  -0.67674
 Alpha  occ. eigenvalues --   -0.61723  -0.53659  -0.51902  -0.47968  -0.46937
 Alpha  occ. eigenvalues --   -0.45249  -0.40536  -0.39090  -0.38458  -0.33731
 Alpha  occ. eigenvalues --   -0.29848  -0.22443
 Alpha virt. eigenvalues --   -0.07896  -0.00790   0.03787   0.04677   0.06174
 Alpha virt. eigenvalues --    0.07093   0.08782   0.10559   0.11856   0.14421
 Alpha virt. eigenvalues --    0.16969   0.19059   0.19498   0.21032   0.21464

 Mulliken charges:
               1
     1  C   -0.016517
     2  C   -0.188948
     3  C   -0.257372
     4  H    0.133199
     5  H    0.111346
     6  H    0.109543
     7  C    0.159222
     8  C   -0.079320
     9  H    0.092037
    10  O   -0.323363
    11  H    0.119996
    12  H    0.140176
 Sum of Mulliken charges =  -0.00000

 Dipole moment (field-independent basis, Debye):
    X=             -1.6347    Y=             -0.5151    Z=             -0.6939  Tot=              1.8491
 Quadrupole moment (field-independent basis, Debye-Ang):
   XX=            -40.2409   YY=            -37.7164   ZZ=            -32.7300
   XY=             -2.1002   XZ=             -3.5262   YZ=             -2.0869

 Normal termination of Gaussian 16 at Fri Mar 18 14:20:26 2022.
