 Gaussian 16, Revision A.03,
 Gaussian 16:  ES64L-G16RevA.03 25-Dec-2016

 --------------------------
 # sp B3LYP/Def2TZVP NoSymm
 --------------------------

 ----------------------------------
 int_initalOptXYZ_aligned_AlignedSp
 ----------------------------------
 Symbolic Z-matrix:
 Charge =  0 Multiplicity = 1

                          Input orientation:
 ---------------------------------------------------------------------
 Center     Atomic      Atomic             Coordinates (Angstroms)
 Number     Number       Type             X           Y           Z
 ---------------------------------------------------------------------
      1          1           0        2.449586    0.005373   -0.403298
      2          6           0        1.397059    0.084473   -0.164530
      3          6           0        0.742803    1.249978   -0.158493
      4          1           0        1.246978    2.179860   -0.391147
      5          6           0       -0.691479    1.257983    0.077940
      6          1           0       -1.238516    2.178973    0.213880
      7          6           0       -1.354703    0.096568   -0.027602
      8          1           0       -2.433254    0.006770   -0.042074
      9          8           0       -0.739873   -1.091573   -0.231885
     10          6           0        0.634877   -1.154324    0.206825
     11          1           0        1.044479   -2.050238   -0.256846
     12          1           0        0.629323   -1.304366    1.298054
 ---------------------------------------------------------------------

 SCF Done:  E(RB3LYP) =  -269.422508218     A.U. after   13 cycles

 Alpha  occ. eigenvalues --  -19.16116 -10.23274 -10.23078 -10.17926 -10.17313
 Alpha  occ. eigenvalues --  -10.16645  -1.07060  -0.81408  -0.77439  -0.66565
 Alpha  occ. eigenvalues --   -0.62635  -0.53389  -0.51176  -0.48548  -0.46309
 Alpha  occ. eigenvalues --   -0.43838  -0.40954  -0.37855  -0.36089  -0.33068
 Alpha  occ. eigenvalues --   -0.30118  -0.21129
 Alpha virt. eigenvalues --   -0.03376   0.04616   0.05587   0.07510   0.07893
 Alpha virt. eigenvalues --    0.09293   0.10034   0.10888   0.12582   0.16187
 Alpha virt. eigenvalues --    0.17805   0.19367   0.21561   0.22452   0.22634

 Mulliken charges:
               1
     1  H    0.112305
     2  C   -0.177886
     3  C   -0.088599
     4  H    0.112036
     5  C   -0.167995
     6  H    0.112381
     7  C    0.026113
     8  H    0.121115
     9  O   -0.270095
    10  C    0.035968
    11  H    0.108345
    12  H    0.076313
 Sum of Mulliken charges =  -0.00000

 Dipole moment (field-independent basis, Debye):
    X=              0.5570    Y=              0.3386    Z=              0.3041  Tot=              0.7192
 Quadrupole moment (field-independent basis, Debye-Ang):
   XX=            -32.3884   YY=            -34.1862   ZZ=            -38.4505
   XY=             -2.2120   XZ=             -0.7121   YZ=             -0.8101

 Normal termination of Gaussian 16 at Fri Mar 18 11:02:23 2022.
