 Gaussian 16, Revision A.03,
 Gaussian 16:  ES64L-G16RevA.03 25-Dec-2016

 --------------------------
 # sp B3LYP/Def2TZVP NoSymm
 --------------------------

 ---------------------------
 ts_initalOpt_zmat_AlignedSp
 ---------------------------
 Symbolic Z-matrix:
 Charge =  0 Multiplicity = 1

                          Input orientation:
 ---------------------------------------------------------------------
 Center     Atomic      Atomic             Coordinates (Angstroms)
 Number     Number       Type             X           Y           Z
 ---------------------------------------------------------------------
      1          1           0        0.000000    0.000000    0.000000
      2          6           0        0.000000    0.000000    1.083006
      3          6           0        1.193696    0.000000    1.793174
      4          6           0       -1.170803    0.221154    1.801836
      5          1           0        2.111669   -0.325265    1.312527
      6          6           0        1.287500    0.627142    3.040077
      7          1           0       -2.087114    0.500831    1.297807
      8          1           0       -1.302641   -0.292623    2.743899
      9          1           0        2.239350    0.659874    3.552615
     10          6           0        0.363633    1.645875    3.365228
     11          1           0        0.766957    2.484675    3.945665
     12          8           0       -0.815351    1.783513    2.952283
 ---------------------------------------------------------------------

 SCF Done:  E(RB3LYP) =  -269.391777754     A.U. after   14 cycles

 Alpha  occ. eigenvalues --  -19.14210 -10.25216 -10.22025 -10.19714 -10.17183
 Alpha  occ. eigenvalues --  -10.16810  -1.04687  -0.82889  -0.75669  -0.66725
 Alpha  occ. eigenvalues --   -0.60755  -0.52726  -0.50981  -0.47029  -0.45940
 Alpha  occ. eigenvalues --   -0.44222  -0.39713  -0.38200  -0.37609  -0.32592
 Alpha  occ. eigenvalues --   -0.28924  -0.21522
 Alpha virt. eigenvalues --   -0.06867   0.00076   0.04601   0.05564   0.07414
 Alpha virt. eigenvalues --    0.07938   0.09478   0.11463   0.12253   0.15881
 Alpha virt. eigenvalues --    0.18106   0.19678   0.20442   0.21643   0.22018

 Mulliken charges:
               1
     1  H    0.109925
     2  C   -0.195564
     3  C   -0.019607
     4  C   -0.091819
     5  H    0.114857
     6  C   -0.258490
     7  H    0.134346
     8  H    0.131302
     9  H    0.100604
    10  C    0.161215
    11  H    0.110702
    12  O   -0.297472
 Sum of Mulliken charges =  -0.00000

 Dipole moment (field-independent basis, Debye):
    X=              0.8432    Y=             -0.5077    Z=             -0.4178  Tot=              1.0692
 Quadrupole moment (field-independent basis, Debye-Ang):
   XX=            -33.1955   YY=            -39.0827   ZZ=            -36.0514
   XY=              2.6339   XZ=              3.7686   YZ=             -0.2919

 Normal termination of Gaussian 16 at Fri Mar 18 11:02:29 2022.
