 Gaussian 16, Revision A.03,
 Gaussian 16:  ES64L-G16RevA.03 25-Dec-2016

 ----------------------------------------------------------------------
 # Opt=(TS, CalcFC, noeigentest, Z-matrix, MaxStep=10) geom=allcheckpoi
 nt guess=read Field=read NoSymm B3LYP/Def2TZVP freq=noraman pop=none
 ----------------------------------------------------------------------

 Structure from the checkpoint file:  "checkpoint.chk"
 -----------------
 ts_zmat_initalOpt
 -----------------
 Charge =  0 Multiplicity = 1

 SCF Done:  E(RB3LYP) =  -309.681393092     A.U. after   11 cycles
 SCF Done:  E(RB3LYP) =  -309.681404456     A.U. after   10 cycles
 Optimization completed.
    -- Stationary point found.
 Normal termination of Gaussian 16 at Fri Jun 10 03:52:23 2022.

 --------------------------------------------------------------------
 #N Geom=AllCheck Guess=TCheck SCRF=Check GenChk RB3LYP/def2TZVP Freq
 --------------------------------------------------------------------

 Structure from the checkpoint file:  "checkpoint.chk"
 -----------------
 ts_zmat_initalOpt
 -----------------
 Charge =  0 Multiplicity = 1

                          Input orientation:
 ---------------------------------------------------------------------
 Center     Atomic      Atomic             Coordinates (Angstroms)
 Number     Number       Type             X           Y           Z
 ---------------------------------------------------------------------
      1          6           0        0.000000    0.000000    0.000000
      2          6           0        0.000000    0.000000    1.404780
      3          6           0        1.215896    0.000000   -0.715686
      4          6           0       -1.036799   -0.076243   -0.978659
      5          1           0       -0.915184    0.097005    1.976241
      6          6           0        1.205146   -0.241714    2.033222
      7          6           0        2.417400   -0.353109   -0.079204
      8          6           0        0.904896    0.472128   -2.026760
      9          1           0       -1.032130   -0.918802   -1.651886
     10          1           0       -2.014306    0.383580   -0.831293
     11          6           0        2.392169   -0.458402    1.297069
     12          1           0        1.244310   -0.308218    3.112825
     13          1           0        3.346265   -0.454135   -0.627422
     14          1           0        0.451506    1.446608   -2.116132
     15          1           0        1.448194    0.139685   -2.911622
     16          1           0        3.305785   -0.672643    1.836427
 ---------------------------------------------------------------------

 SCF Done:  E(RB3LYP) =  -309.681404456     A.U. after    1 cycles

 Isotropic polarizability for W=    0.000000       98.56 Bohr**3.
 End of Minotr F.D. properties file   721 does not exist.

 ******    1 imaginary frequencies (negative Signs) ******

                      1                      2                      3
                      A                      A                      A
 Frequencies --   -625.6573               224.2941               224.8279
 Red. masses --      2.1721                 2.8580                 3.2365
 Frc consts  --      0.5010                 0.0847                 0.0964
 IR Inten    --     14.1398                 1.0148                 5.1792

                      4                      5                      6
                      A                      A                      A
 Frequencies --    397.2431               432.2054               522.0812
 Red. masses --      2.7559                 2.9894                 3.0806
 Frc consts  --      0.2562                 0.3290                 0.4947
 IR Inten    --      6.5913                 5.2680                 1.0291

                      7                      8                      9
                      A                      A                      A
 Frequencies --    577.4459               591.7683               653.9466
 Red. masses --      5.2357                 3.9584                 1.2819
 Frc consts  --      1.0286                 0.8167                 0.3230
 IR Inten    --      0.2739                 4.8178                16.6662

                     10                     11                     12
                      A                      A                      A
 Frequencies --    663.7042               747.2927               778.2328
 Red. masses --      1.1001                 3.1590                 1.2374
 Frc consts  --      0.2855                 1.0394                 0.4415
 IR Inten    --      2.5417                 5.3635                56.2907

                     13                     14                     15
                      A                      A                      A
 Frequencies --    815.0782               862.7226               872.5667
 Red. masses --      3.6981                 1.3039                 1.4750
 Frc consts  --      1.4475                 0.5718                 0.6617
 IR Inten    --      1.0849                14.4648                17.2573

                     16                     17                     18
                      A                      A                      A
 Frequencies --    883.6989               890.6014               960.8417
 Red. masses --      3.6855                 1.5803                 1.3482
 Frc consts  --      1.6957                 0.7385                 0.7333
 IR Inten    --      1.0314                41.1443                 4.9193

                     19                     20                     21
                      A                      A                      A
 Frequencies --   1006.6235              1012.1931              1017.7708
 Red. masses --      1.3421                 1.4589                 2.1149
 Frc consts  --      0.8012                 0.8806                 1.2907
 IR Inten    --      0.0884                 2.4119                 0.0817

                     22                     23                     24
                      A                      A                      A
 Frequencies --   1044.7854              1147.8793              1187.2766
 Red. masses --      1.5404                 1.5019                 1.1093
 Frc consts  --      0.9907                 1.1659                 0.9213
 IR Inten    --     10.3147                 1.1779                 0.0178

                     25                     26                     27
                      A                      A                      A
 Frequencies --   1237.3573              1323.9008              1330.7434
 Red. masses --      2.3494                 1.6675                 2.7729
 Frc consts  --      2.1193                 1.7220                 2.8931
 IR Inten    --      8.2471                 0.7630                 1.1101

                     28                     29                     30
                      A                      A                      A
 Frequencies --   1372.5678              1472.1531              1490.8244
 Red. masses --      4.1330                 1.3766                 1.5458
 Frc consts  --      4.5876                 1.7578                 2.0242
 IR Inten    --      0.6405                 8.7152                 5.2449

                     31                     32                     33
                      A                      A                      A
 Frequencies --   1504.4787              1525.2472              1586.3292
 Red. masses --      2.0282                 2.1241                 5.1366
 Frc consts  --      2.7047                 2.9114                 7.6158
 IR Inten    --      1.0355                 4.8560                10.1460

                     34                     35                     36
                      A                      A                      A
 Frequencies --   1630.8521              3081.1373              3081.2822
 Red. masses --      5.5516                 1.0655                 1.0673
 Frc consts  --      8.6995                 5.9600                 5.9705
 IR Inten    --      1.2546                45.1626                50.1787

                     37                     38                     39
                      A                      A                      A
 Frequencies --   3171.0150              3173.7926              3189.1044
 Red. masses --      1.0877                 1.0888                 1.0926
 Frc consts  --      6.4439                 6.4616                 6.5472
 IR Inten    --     10.6294                 0.0528                 9.3741

                     40                     41                     42
                      A                      A                      A
 Frequencies --   3200.5838              3221.2991              3223.2677
 Red. masses --      1.0961                 1.0994                 1.1003
 Frc consts  --      6.6156                 6.7217                 6.7354
 IR Inten    --      1.4468                 9.5070                 0.3528

 - Thermochemistry -
 -------------------
 Temperature   298.150 Kelvin.  Pressure   1.00000 Atm.
 Atom     1 has atomic number  6 and mass  12.00000

 Molecular mass:   104.06260 amu.
 Principal axes and moments of inertia in atomic units:
                           1         2         3
     Eigenvalues --   471.41886 812.215171240.60655
           X            0.50170   0.86108   0.08273
           Y           -0.14746  -0.00911   0.98903
           Z            0.85238  -0.50839   0.12240
 This molecule is an asymmetric top.
 Rotational symmetry number  1.
 Warning -- assumption of classical behavior for rotation
           may cause significant error
 Rotational temperatures (Kelvin)      0.18373     0.10664     0.06982
 Rotational constants (GHZ):           3.82832     2.22200     1.45472
    1 imaginary frequencies ignored.
 Zero-point vibrational energy     342915.6 (Joules/Mol)
                                   81.95880 (Kcal/Mol)
 Warning -- explicit consideration of   7 degrees of freedom as
           vibrations may cause significant error
 Vibrational temperatures:    322.71   323.48   571.54   621.85   751.16
          (Kelvin)            830.82   851.42   940.88   954.92  1075.19
                             1119.70  1172.72  1241.27  1255.43  1271.45
                             1281.38  1382.44  1448.31  1456.32  1464.35
                             1503.21  1651.54  1708.23  1780.28  1904.80
                             1914.64  1974.82  2118.10  2144.96  2164.61
                             2194.49  2282.37  2346.43  4433.07  4433.28
                             4562.38  4566.38  4588.41  4604.93  4634.73
                             4637.56

 Zero-point correction=                           0.130610 (Hartree/Particle)
 Thermal correction to Energy=                    0.136662
 Thermal correction to Enthalpy=                  0.137607
 Thermal correction to Gibbs Free Energy=         0.100812
 Sum of electronic and zero-point Energies=           -309.550795
 Sum of electronic and thermal Energies=              -309.544742
 Sum of electronic and thermal Enthalpies=            -309.543798
 Sum of electronic and thermal Free Energies=         -309.580592

                     E (Thermal)             CV                S
                      KCal/Mol        Cal/Mol-Kelvin    Cal/Mol-Kelvin
 Total                   85.757             25.051             77.440
 Electronic               0.000              0.000              0.000
 Translational            0.889              2.981             39.837
 Rotational               0.889              2.981             27.654
 Vibrational             83.979             19.090              9.949
 Vibration     1          0.649              1.804              1.924
 Vibration     2          0.649              1.803              1.920
 Vibration     3          0.764              1.476              0.973
 Vibration     4          0.793              1.400              0.851
 Vibration     5          0.877              1.201              0.605
 Vibration     6          0.934              1.080              0.490
 Vibration     7          0.949              1.049              0.464

 Optimization completed.
    -- Stationary point found.
 Normal termination of Gaussian 16 at Fri Jun 10 04:03:58 2022.
