 Gaussian 16, Revision A.03,
 Gaussian 16:  ES64L-G16RevA.03 25-Dec-2016

 ----------------------------------------------------------------------
 # Opt=(Z-matrix, MaxStep=10) B3LYP/Def2TZVP geom=allcheckpoint guess=r
 ead Field=read NoSymm
 ----------------------------------------------------------------------

 Structure from the checkpoint file:  "checkpoint.chk"
 ------------------
 int_zmat_initalOpt
 ------------------
 Charge =  0 Multiplicity = 1

 SCF Done:  E(RB3LYP) =  -269.423420856     A.U. after   10 cycles
 SCF Done:  E(RB3LYP) =  -269.423433831     A.U. after    9 cycles
 SCF Done:  E(RB3LYP) =  -269.423439883     A.U. after    8 cycles
 SCF Done:  E(RB3LYP) =  -269.423442382     A.U. after    9 cycles
 SCF Done:  E(RB3LYP) =  -269.423442969     A.U. after    8 cycles
 Optimization completed.
    -- Stationary point found.

                         Z-Matrix orientation:
 ---------------------------------------------------------------------
 Center     Atomic      Atomic             Coordinates (Angstroms)
 Number     Number       Type             X           Y           Z
 ---------------------------------------------------------------------
      1          1           0        0.000000    0.000000    0.000000
      2          6           0        0.000000    0.000000    1.081971
      3          6           0        1.125730    0.000000    1.800564
      4          6           0       -1.314075   -0.055129    1.804293
      5          1           0        2.096744    0.017844    1.322277
      6          6           0        1.042983    0.074321    3.251084
      7          8           0       -1.264342    0.604744    3.089726
      8          1           0       -2.108052    0.446653    1.253509
      9          1           0       -1.626198   -1.098552    1.978378
     10          1           0        1.922513   -0.014249    3.871622
     11          6           0       -0.128669    0.421315    3.802363
     12          1           0       -0.260789    0.673166    4.847001
 ---------------------------------------------------------------------

 Alpha  occ. eigenvalues --  -19.17856 -10.24932 -10.24905 -10.19147 -10.18625
 Alpha  occ. eigenvalues --  -10.18439  -1.08744  -0.82863  -0.79170  -0.68167
 Alpha  occ. eigenvalues --   -0.64279  -0.54995  -0.52563  -0.50218  -0.48027
 Alpha  occ. eigenvalues --   -0.45321  -0.42491  -0.39399  -0.37774  -0.34643
 Alpha  occ. eigenvalues --   -0.31824  -0.22614
 Alpha virt. eigenvalues --   -0.04873   0.02880   0.03753   0.05928   0.06223
 Alpha virt. eigenvalues --    0.07795   0.08087   0.09471   0.11681   0.14531
 Alpha virt. eigenvalues --    0.15936   0.17815   0.19503   0.20619   0.21317

 Mulliken charges:
               1
     1  H    0.132914
     2  C   -0.171677
     3  C   -0.102599
     4  C    0.039326
     5  H    0.129857
     6  C   -0.162157
     7  O   -0.273366
     8  H    0.122007
     9  H    0.054293
    10  H    0.105558
    11  C    0.022687
    12  H    0.103158
 Sum of Mulliken charges =  -0.00000

 Dipole moment (field-independent basis, Debye):
    X=              0.4906    Y=             -0.0910    Z=             -1.1017  Tot=              1.2094
 Quadrupole moment (field-independent basis, Debye-Ang):
   XX=            -34.3388   YY=            -38.7641   ZZ=            -37.4444
   XY=              0.7815   XZ=              3.2116   YZ=              0.0577

 Normal termination of Gaussian 16 at Fri Mar 18 11:06:21 2022.
