 Gaussian 16, Revision A.03,
 Gaussian 16:  ES64L-G16RevA.03 25-Dec-2016

 ----------------------------------------------------------------------
 # Opt=(Z-matrix, MaxStep=10) B3LYP/Def2TZVP geom=allcheckpoint guess=r
 ead Field=read NoSymm freq=noraman pop=none
 ----------------------------------------------------------------------

 Structure from the checkpoint file:  "checkpoint.chk"
 ------------------
 int_zmat_initalOpt
 ------------------
 Charge =  0 Multiplicity = 1

 SCF Done:  E(RB3LYP) =  -439.160801547     A.U. after   11 cycles
 SCF Done:  E(RB3LYP) =  -439.160812553     A.U. after    9 cycles
 SCF Done:  E(RB3LYP) =  -439.160814651     A.U. after    9 cycles
 SCF Done:  E(RB3LYP) =  -439.160815471     A.U. after    9 cycles
 SCF Done:  E(RB3LYP) =  -439.160816407     A.U. after    9 cycles
 SCF Done:  E(RB3LYP) =  -439.160816747     A.U. after    9 cycles
 Optimization completed.
    -- Stationary point found.
 Normal termination of Gaussian 16 at Fri Jun 10 12:33:49 2022.

 --------------------------------------------------------------------
 #N Geom=AllCheck Guess=TCheck SCRF=Check GenChk RB3LYP/def2TZVP Freq
 --------------------------------------------------------------------

 Structure from the checkpoint file:  "checkpoint.chk"
 ------------------
 int_zmat_initalOpt
 ------------------
 Charge =  0 Multiplicity = 1

                          Input orientation:
 ---------------------------------------------------------------------
 Center     Atomic      Atomic             Coordinates (Angstroms)
 Number     Number       Type             X           Y           Z
 ---------------------------------------------------------------------
      1          6           0        0.000000    0.000000    0.000000
      2          6           0        0.000000    0.000000    1.387794
      3          6           0        1.048201    0.000000   -0.999894
      4          7           0       -1.317772   -0.119248   -0.387880
      5          6           0        2.309233    0.466661   -0.926723
      6          1           0        0.871834    0.025951    2.017059
      7          1           0        0.779332   -0.472996   -1.939340
      8          6           0       -1.344078   -0.112112    1.823823
      9          6           0       -2.140618   -0.183411    0.703996
     10          1           0       -1.614646   -0.143178   -1.347716
     11          6           0        2.997943    1.210494    0.114246
     12          1           0        2.941544    0.273408   -1.784406
     13          1           0       -1.685037   -0.153246    2.845984
     14          1           0       -3.207534   -0.281753    0.595581
     15          6           0        2.480882    1.906595    1.106074
     16          1           0        4.076483    1.313468    0.042108
     17          8           0        2.070111    2.528644    1.995549
 ---------------------------------------------------------------------

 SCF Done:  E(RB3LYP) =  -439.160816747     A.U. after    1 cycles

 Isotropic polarizability for W=    0.000000      107.14 Bohr**3.
 End of Minotr F.D. properties file   721 does not exist.

                      1                      2                      3
                      A                      A                      A
 Frequencies --     41.5276                70.7920               118.8387
 Red. masses --      4.5285                 3.9882                 5.8405
 Frc consts  --      0.0046                 0.0118                 0.0486
 IR Inten    --      1.4413                 1.1680                 0.4585

                      4                      5                      6
                      A                      A                      A
 Frequencies --    162.3403               226.6298               315.4358
 Red. masses --      6.2185                 3.5862                 5.1911
 Frc consts  --      0.0966                 0.1085                 0.3043
 IR Inten    --      4.1691                 3.0970                 5.8542

                      7                      8                      9
                      A                      A                      A
 Frequencies --    467.4834               493.8500               510.9136
 Red. masses --      1.7821                 1.8104                 4.3144
 Frc consts  --      0.2295                 0.2601                 0.6635
 IR Inten    --     44.6140                 2.1822                 3.6219

                     10                     11                     12
                      A                      A                      A
 Frequencies --    542.7865               609.3430               625.4843
 Red. masses --      5.0878                 1.7974                 3.1596
 Frc consts  --      0.8832                 0.3932                 0.7283
 IR Inten    --      2.4685                60.8938                 0.5411

                     13                     14                     15
                      A                      A                      A
 Frequencies --    649.9873               659.1129               698.2965
 Red. masses --      1.7208                 2.5443                 2.7163
 Frc consts  --      0.4284                 0.6512                 0.7804
 IR Inten    --     30.7736                34.3107                15.7058

                     16                     17                     18
                      A                      A                      A
 Frequencies --    759.9256               782.0211               834.9779
 Red. masses --      1.3993                 1.4264                 1.8437
 Frc consts  --      0.4761                 0.5140                 0.7573
 IR Inten    --     17.1919                40.7390                 2.6051

                     19                     20                     21
                      A                      A                      A
 Frequencies --    853.2414               900.4542               929.2991
 Red. masses --      2.2390                 5.5713                 4.4433
 Frc consts  --      0.9604                 2.6615                 2.2608
 IR Inten    --     14.2217                 3.4885                15.5830

                     22                     23                     24
                      A                      A                      A
 Frequencies --    975.0843               981.6014              1057.0797
 Red. masses --      1.4115                 2.0478                 1.3721
 Frc consts  --      0.7907                 1.1626                 0.9033
 IR Inten    --      2.7845                 0.5324                16.6735

                     25                     26                     27
                      A                      A                      A
 Frequencies --   1116.0295              1131.8779              1153.6954
 Red. masses --      1.9216                 1.4177                 1.5702
 Frc consts  --      1.4101                 1.0701                 1.2313
 IR Inten    --     26.0683                31.7719                 4.1657

                     28                     29                     30
                      A                      A                      A
 Frequencies --   1231.0945              1257.2147              1308.6400
 Red. masses --      2.6665                 1.3896                 1.3389
 Frc consts  --      2.3811                 1.2940                 1.3509
 IR Inten    --      7.9905                 0.0457                 4.8860

                     31                     32                     33
                      A                      A                      A
 Frequencies --   1419.9579              1433.9279              1439.1247
 Red. masses --      2.3911                 2.6439                 2.7060
 Frc consts  --      2.8405                 3.2029                 3.3020
 IR Inten    --      2.5504                 2.9547                25.7606

                     34                     35                     36
                      A                      A                      A
 Frequencies --   1467.7199              1491.2978              1593.7252
 Red. masses --      2.0426                 3.8705                 3.4207
 Frc consts  --      2.5925                 5.0716                 5.1191
 IR Inten    --      9.1046                15.5199                 3.6949

                     37                     38                     39
                      A                      A                      A
 Frequencies --   1666.9037              2178.4886              3139.6924
 Red. masses --      6.4890                12.6408                 1.0857
 Frc consts  --     10.6230                35.3457                 6.3054
 IR Inten    --     47.7807               709.5117                 5.1697

                     40                     41                     42
                      A                      A                      A
 Frequencies --   3152.9412              3181.5872              3225.4930
 Red. masses --      1.0836                 1.0906                 1.0893
 Frc consts  --      6.3465                 6.5043                 6.6774
 IR Inten    --     25.2895                 3.0618                13.3313

                     43                     44                     45
                      A                      A                      A
 Frequencies --   3252.8281              3269.6431              3650.1483
 Red. masses --      1.0993                 1.0977                 1.0801
 Frc consts  --      6.8529                 6.9143                 8.4792
 IR Inten    --     11.4040                 0.1631                61.4868

 - Thermochemistry -
 -------------------
 Temperature   298.150 Kelvin.  Pressure   1.00000 Atm.
 Atom     1 has atomic number  6 and mass  12.00000

 Molecular mass:   133.05276 amu.
 Principal axes and moments of inertia in atomic units:
                           1         2         3
     Eigenvalues --   751.614341835.520402449.97476
           X            0.91399  -0.17437  -0.36635
           Y            0.40569   0.38011   0.83123
           Z            0.00569   0.90836  -0.41815
 This molecule is an asymmetric top.
 Rotational symmetry number  1.
 Warning -- assumption of classical behavior for rotation
           may cause significant error
 Rotational temperatures (Kelvin)      0.11524     0.04719     0.03535
 Rotational constants (GHZ):           2.40115     0.98323     0.73664
 Zero-point vibrational energy     341106.4 (Joules/Mol)
                                   81.52639 (Kcal/Mol)
 Warning -- explicit consideration of  11 degrees of freedom as
           vibrations may cause significant error
 Vibrational temperatures:     59.75   101.85   170.98   233.57   326.07
          (Kelvin)            453.84   672.60   710.54   735.09   780.95
                              876.71   899.93   935.19   948.32  1004.69
                             1093.36  1125.15  1201.35  1227.62  1295.55
                             1337.05  1402.93  1412.31  1520.90  1605.72
                             1628.52  1659.91  1771.27  1808.85  1882.84
                             2043.00  2063.10  2070.58  2111.72  2145.64
                             2293.02  2398.30  3134.36  4517.32  4536.38
                             4577.59  4640.77  4680.09  4704.29  5251.75

 Zero-point correction=                           0.129921 (Hartree/Particle)
 Thermal correction to Energy=                    0.138869
 Thermal correction to Enthalpy=                  0.139813
 Thermal correction to Gibbs Free Energy=         0.094885
 Sum of electronic and zero-point Energies=           -439.030896
 Sum of electronic and thermal Energies=              -439.021948
 Sum of electronic and thermal Enthalpies=            -439.021004
 Sum of electronic and thermal Free Energies=         -439.065932

                     E (Thermal)             CV                S
                      KCal/Mol        Cal/Mol-Kelvin    Cal/Mol-Kelvin
 Total                   87.142             33.254             94.560
 Electronic               0.000              0.000              0.000
 Translational            0.889              2.981             40.569
 Rotational               0.889              2.981             29.604
 Vibrational             85.364             27.292             24.387
 Vibration     1          0.594              1.981              5.185
 Vibration     2          0.598              1.968              4.131
 Vibration     3          0.609              1.934              3.119
 Vibration     4          0.622              1.889              2.522
 Vibration     5          0.650              1.800              1.905
 Vibration     6          0.703              1.644              1.334
 Vibration     7          0.825              1.322              0.745
 Vibration     8          0.850              1.264              0.674
 Vibration     9          0.866              1.226              0.631
 Vibration    10          0.898              1.155              0.559
 Vibration    11          0.968              1.012              0.434

                       ! Non-Optimized Parameters !
 Normal termination of Gaussian 16 at Fri Jun 10 12:44:05 2022.
