 Gaussian 16, Revision A.03,
 Gaussian 16:  ES64L-G16RevA.03 25-Dec-2016

 --------------------------------------------------------------------
 # Opt=(TS, CalcFC, noeigentest) B3LYP/Def2TZVP freq=noraman pop=none
 --------------------------------------------------------------------

 ------------
 ts_initalOpt
 ------------
 Symbolic Z-matrix:
 Charge =  0 Multiplicity = 1

 SCF Done:  E(RB3LYP) =  -387.287092823     A.U. after   14 cycles
 SCF Done:  E(RB3LYP) =  -387.287092866     A.U. after    7 cycles
 Optimization completed.
    -- Stationary point found.
 Normal termination of Gaussian 16 at Fri Jun 10 22:06:17 2022.

 --------------------------------------------------------------------
 #N Geom=AllCheck Guess=TCheck SCRF=Check GenChk RB3LYP/def2TZVP Freq
 --------------------------------------------------------------------

 Structure from the checkpoint file:  "checkpoint.chk"
 ------------
 ts_initalOpt
 ------------
 Charge =  0 Multiplicity = 1

                         Standard orientation:
 ---------------------------------------------------------------------
 Center     Atomic      Atomic             Coordinates (Angstroms)
 Number     Number       Type             X           Y           Z
 ---------------------------------------------------------------------
      1          6           0       -2.778198   -1.119334    0.199258
      2          6           0       -1.444859   -0.558768   -0.128705
      3          1           0       -2.754629   -2.209436    0.261785
      4          1           0       -3.516732   -0.836641   -0.554928
      5          1           0       -3.135922   -0.727769    1.154773
      6          6           0       -0.251628   -0.809318   -0.401129
      7          6           0        0.942963   -1.662272   -0.387052
      8          8           0        1.984500   -1.061063    0.393068
      9          1           0        1.314300   -1.852471   -1.400362
     10          1           0        0.706801   -2.626786    0.073993
     11          6           0        1.731886    0.321276    0.679964
     12          6           0        1.043382    0.955787   -0.490544
     13          1           0        2.720453    0.759907    0.837102
     14          1           0        1.157643    0.429286    1.605896
     15          6           0        0.091833    1.953960   -0.516270
     16          1           0        1.632430    0.854618   -1.400203
     17          6           0       -0.986290    2.042385    0.386488
     18          1           0       -0.047364    2.446705   -1.474173
     19          1           0       -0.822468    1.822829    1.437635
     20          1           0       -1.507793    0.858135    0.038500
     21          1           0       -1.717252    2.827837    0.223385
 ---------------------------------------------------------------------

 SCF Done:  E(RB3LYP) =  -387.287092866     A.U. after    1 cycles

 Isotropic polarizability for W=    0.000000      105.56 Bohr**3.
 End of Minotr F.D. properties file   721 does not exist.

 ******    1 imaginary frequencies (negative Signs) ******

                      1                      2                      3
                      A                      A                      A
 Frequencies --  -1182.8335               106.2661               115.5109
 Red. masses --      1.4482                 2.1571                 1.2113
 Frc consts  --      1.1938                 0.0144                 0.0095
 IR Inten    --      3.3763                 0.7304                 0.1996

                      4                      5                      6
                      A                      A                      A
 Frequencies --    148.5652               192.2259               209.7253
 Red. masses --      2.8774                 2.4501                 2.6754
 Frc consts  --      0.0374                 0.0533                 0.0693
 IR Inten    --      7.2445                 2.5397                 2.5612

                      7                      8                      9
                      A                      A                      A
 Frequencies --    262.3923               274.0681               353.0010
 Red. masses --      2.6406                 3.8887                 3.6274
 Frc consts  --      0.1071                 0.1721                 0.2663
 IR Inten    --      0.7104                 2.5070                 1.8920

                     10                     11                     12
                      A                      A                      A
 Frequencies --    407.9564               422.4009               484.0627
 Red. masses --      2.9489                 2.8625                 4.0464
 Frc consts  --      0.2892                 0.3009                 0.5586
 IR Inten    --      0.2481                 4.3480                 1.7051

                     13                     14                     15
                      A                      A                      A
 Frequencies --    568.1093               589.6474               646.5179
 Red. masses --      2.6508                 3.5186                 3.2220
 Frc consts  --      0.5041                 0.7208                 0.7935
 IR Inten    --      0.3763                 4.9202                 1.8626

                     16                     17                     18
                      A                      A                      A
 Frequencies --    714.8089               848.8459               855.8799
 Red. masses --      1.5860                 1.3358                 2.5743
 Frc consts  --      0.4774                 0.5671                 1.1111
 IR Inten    --     18.0502                21.2238                10.7609

                     19                     20                     21
                      A                      A                      A
 Frequencies --    901.1673               956.7724              1016.5218
 Red. masses --      4.5621                 1.9615                 1.6011
 Frc consts  --      2.1828                 1.0579                 0.9748
 IR Inten    --     41.3735                13.5105                 2.9592

                     22                     23                     24
                      A                      A                      A
 Frequencies --   1022.3553              1031.7665              1054.1181
 Red. masses --      1.6488                 1.5111                 3.2005
 Frc consts  --      1.0154                 0.9478                 2.0953
 IR Inten    --     12.6743                 2.7406                60.5461

                     25                     26                     27
                      A                      A                      A
 Frequencies --   1059.1358              1064.1569              1068.7516
 Red. masses --      1.4377                 1.4784                 1.8065
 Frc consts  --      0.9502                 0.9864                 1.2158
 IR Inten    --      8.9022                 9.3664                11.7103

                     28                     29                     30
                      A                      A                      A
 Frequencies --   1116.4118              1139.1360              1199.9029
 Red. masses --      1.9205                 2.6512                 1.4111
 Frc consts  --      1.4103                 2.0270                 1.1971
 IR Inten    --     13.6447                14.0741                 1.9242

                     31                     32                     33
                      A                      A                      A
 Frequencies --   1228.5414              1251.2616              1309.9986
 Red. masses --      1.2040                 1.1782                 1.1105
 Frc consts  --      1.0706                 1.0868                 1.1229
 IR Inten    --     13.4276                 7.6481                12.4418

                     34                     35                     36
                      A                      A                      A
 Frequencies --   1331.3433              1351.8256              1378.8926
 Red. masses --      1.1856                 1.2361                 1.3061
 Frc consts  --      1.2381                 1.3309                 1.4632
 IR Inten    --      2.0784                 4.0060                27.8159

                     37                     38                     39
                      A                      A                      A
 Frequencies --   1411.0765              1440.8436              1462.7778
 Red. masses --      1.2125                 1.1474                 1.1873
 Frc consts  --      1.4224                 1.4035                 1.4967
 IR Inten    --      4.6478                 2.9743                 0.8765

                     40                     41                     42
                      A                      A                      A
 Frequencies --   1481.2894              1487.2372              1505.9874
 Red. masses --      1.0442                 1.0437                 1.0911
 Frc consts  --      1.3499                 1.3602                 1.4580
 IR Inten    --      7.8700                 8.1425                 0.2716

                     43                     44                     45
                      A                      A                      A
 Frequencies --   1514.6735              1515.8090              1621.7733
 Red. masses --      1.0985                 1.4586                 4.0341
 Frc consts  --      1.4849                 1.9746                 6.2513
 IR Inten    --      2.3286                 3.3489                26.6625

                     46                     47                     48
                      A                      A                      A
 Frequencies --   2046.5610              2998.7431              3013.0778
 Red. masses --      8.6526                 1.0598                 1.0634
 Frc consts  --     21.3523                 5.6149                 5.6880
 IR Inten    --     26.2647                70.4992                30.4864

                     49                     50                     51
                      A                      A                      A
 Frequencies --   3020.8896              3029.7610              3056.5918
 Red. masses --      1.0336                 1.1012                 1.0989
 Frc consts  --      5.5573                 5.9558                 6.0492
 IR Inten    --     51.9449                20.1177                25.2108

                     52                     53                     54
                      A                      A                      A
 Frequencies --   3074.0090              3082.8185              3106.0944
 Red. masses --      1.1000                 1.1033                 1.0853
 Frc consts  --      6.1242                 6.1777                 6.1692
 IR Inten    --     12.3870                15.9078                18.2680

                     55                     56                     57
                      A                      A                      A
 Frequencies --   3106.8848              3135.3153              3178.8669
 Red. masses --      1.0572                 1.0905                 1.1110
 Frc consts  --      6.0124                 6.3158                 6.6145
 IR Inten    --      9.0704                16.9081                14.6409

 - Thermochemistry -
 -------------------
 Temperature   298.150 Kelvin.  Pressure   1.00000 Atm.
 Atom     1 has atomic number  6 and mass  12.00000

 Molecular mass:   124.08882 amu.
 Principal axes and moments of inertia in atomic units:
                           1         2         3
     Eigenvalues --   912.571911200.139251873.13160
           X            0.99915   0.03878  -0.01431
           Y           -0.03869   0.99923   0.00642
           Z            0.01455  -0.00586   0.99988
 This molecule is an asymmetric top.
 Rotational symmetry number  1.
 Warning -- assumption of classical behavior for rotation
           may cause significant error
 Rotational temperatures (Kelvin)      0.09491     0.07217     0.04624
 Rotational constants (GHZ):           1.97764     1.50378     0.96349
    1 imaginary frequencies ignored.
 Zero-point vibrational energy     460401.5 (Joules/Mol)
                                  110.03861 (Kcal/Mol)
 Warning -- explicit consideration of  13 degrees of freedom as
           vibrations may cause significant error
 Vibrational temperatures:    152.89   166.19   213.75   276.57   301.75
          (Kelvin)            377.52   394.32   507.89   586.96   607.74
                              696.46   817.38   848.37   930.20  1028.45
                             1221.30  1231.42  1296.58  1376.58  1462.55
                             1470.94  1484.48  1516.64  1523.86  1531.08
                             1537.70  1606.27  1638.96  1726.39  1767.60
                             1800.29  1884.80  1915.51  1944.98  1983.92
                             2030.22  2073.05  2104.61  2131.25  2139.80
                             2166.78  2179.28  2180.91  2333.37  2944.54
                             4314.52  4335.15  4346.39  4359.15  4397.75
                             4422.81  4435.49  4468.98  4470.11  4511.02
                             4573.68

 Zero-point correction=                           0.175358 (Hartree/Particle)
 Thermal correction to Energy=                    0.184695
 Thermal correction to Enthalpy=                  0.185639
 Thermal correction to Gibbs Free Energy=         0.141447
 Sum of electronic and zero-point Energies=           -387.111735
 Sum of electronic and thermal Energies=              -387.102398
 Sum of electronic and thermal Enthalpies=            -387.101454
 Sum of electronic and thermal Free Energies=         -387.145646

                     E (Thermal)             CV                S
                      KCal/Mol        Cal/Mol-Kelvin    Cal/Mol-Kelvin
 Total                  115.898             35.190             93.011
 Electronic               0.000              0.000              0.000
 Translational            0.889              2.981             40.361
 Rotational               0.889              2.981             29.108
 Vibrational            114.120             29.229             23.542
 Vibration     1          0.605              1.944              3.336
 Vibration     2          0.608              1.937              3.174
 Vibration     3          0.618              1.904              2.691
 Vibration     4          0.634              1.851              2.206
 Vibration     5          0.642              1.826              2.046
 Vibration     6          0.670              1.742              1.646
 Vibration     7          0.676              1.721              1.570
 Vibration     8          0.729              1.569              1.153
 Vibration     9          0.773              1.453              0.934
 Vibration    10          0.785              1.422              0.884
 Vibration    11          0.840              1.285              0.699
 Vibration    12          0.924              1.100              0.508
 Vibration    13          0.947              1.054              0.468

 Optimization completed.
    -- Stationary point found.

 1\1\GINC-BHC0005\Freq\RB3LYP\def2TZVP\C8H12O1\DHANAWAY\10-Jun-2022\0\\
 #N Geom=AllCheck Guess=TCheck SCRF=Check GenChk RB3LYP/def2TZVP Freq\\
 ts_initalOpt\\0,1\C,-2.7781897575,-1.1191355419,0.1991385179\C,-1.4448
 15586,-0.558652925,-0.1288245407\H,-2.7546890252,-2.2092386429,0.26166
 61234\H,-3.516706776,-0.836395754,-0.5550468943\H,-3.1358891909,-0.727
 5472253,1.1546540748\C,-0.2516008437,-0.8092777058,-0.4012484294\C,0.9
 429363757,-1.662306568,-0.3871708622\O,1.9845120863,-1.0611635865,0.39
 29485609\H,1.3142618665,-1.8525293356,-1.4004809582\H,0.7067143043,-2.

 Normal termination of Gaussian 16 at Fri Jun 10 22:20:36 2022.
