 Gaussian 16, Revision A.03,
 Gaussian 16:  ES64L-G16RevA.03 25-Dec-2016

 ----------------------------------------------------------------------
 # Opt=(TS, CalcFC, noeigentest, Z-matrix, MaxStep=10) geom=allcheckpoi
 nt guess=read Field=read NoSymm B3LYP/Def2TZVP freq=noraman pop=none
 ----------------------------------------------------------------------

 Structure from the checkpoint file:  "checkpoint.chk"
 -----------------
 ts_zmat_initalOpt
 -----------------
 Charge =  0 Multiplicity = 1

 SCF Done:  E(RB3LYP) =  -210.184007728     A.U. after   10 cycles
 SCF Done:  E(RB3LYP) =  -210.184014174     A.U. after    8 cycles
 Optimization completed.
    -- Stationary point found.
 Normal termination of Gaussian 16 at Fri Jun 10 23:45:02 2022.

 --------------------------------------------------------------------
 #N Geom=AllCheck Guess=TCheck SCRF=Check GenChk RB3LYP/def2TZVP Freq
 --------------------------------------------------------------------

 Structure from the checkpoint file:  "checkpoint.chk"
 -----------------
 ts_zmat_initalOpt
 -----------------
 Charge =  0 Multiplicity = 1

                          Input orientation:
 ---------------------------------------------------------------------
 Center     Atomic      Atomic             Coordinates (Angstroms)
 Number     Number       Type             X           Y           Z
 ---------------------------------------------------------------------
      1          1           0        0.000000    0.000000    0.000000
      2          6           0        0.000000    0.000000    1.078484
      3          6           0        1.112330    0.000000    1.916381
      4          6           0       -1.125419   -0.008381    1.906191
      5          1           0        2.144127   -0.020769    1.599507
      6          1           0       -1.183324   -1.012272    2.720341
      7          6           0        0.649194   -0.030966    3.230390
      8          7           0       -0.702098    0.009262    3.302795
      9          1           0       -2.155698    0.208141    1.669255
     10          1           0        1.231389   -0.139596    4.134796
 ---------------------------------------------------------------------

 SCF Done:  E(RB3LYP) =  -210.184014174     A.U. after    1 cycles

 Isotropic polarizability for W=    0.000000       50.45 Bohr**3.
 End of Minotr F.D. properties file   721 does not exist.

 ******    1 imaginary frequencies (negative Signs) ******

                      1                      2                      3
                      A                      A                      A
 Frequencies --  -1484.4058               590.8611               639.2227
 Red. masses --      1.2139                 2.2648                 3.8851
 Frc consts  --      1.5759                 0.4658                 0.9353
 IR Inten    --     99.3720                 2.0905                 3.5035

                      4                      5                      6
                      A                      A                      A
 Frequencies --    755.6790               831.0122               874.1765
 Red. masses --      1.1080                 1.4395                 4.6696
 Frc consts  --      0.3728                 0.5857                 2.1025
 IR Inten    --     94.3982                 2.7352                12.4988

                      7                      8                      9
                      A                      A                      A
 Frequencies --    886.2613               892.2403               939.7361
 Red. masses --      1.7019                 2.5183                 2.1657
 Frc consts  --      0.7876                 1.1812                 1.1268
 IR Inten    --     11.9172                 6.2590                18.6107

                     10                     11                     12
                      A                      A                      A
 Frequencies --    955.9300              1067.9545              1094.2463
 Red. masses --      1.8438                 1.3711                 1.2400
 Frc consts  --      0.9927                 0.9214                 0.8748
 IR Inten    --     21.2258                12.1716                 1.2657

                     13                     14                     15
                      A                      A                      A
 Frequencies --   1134.8839              1177.9180              1247.1147
 Red. masses --      2.1657                 1.1522                 1.8123
 Frc consts  --      1.6435                 0.9419                 1.6607
 IR Inten    --      1.8335                26.9927                 2.1469

                     16                     17                     18
                      A                      A                      A
 Frequencies --   1311.4369              1433.6284              1482.5852
 Red. masses --      1.7787                 2.9177                 3.0908
 Frc consts  --      1.8024                 3.5332                 4.0027
 IR Inten    --      2.1249                 8.8643                 2.9269

                     19                     20                     21
                      A                      A                      A
 Frequencies --   1511.6000              2181.6270              3195.0075
 Red. masses --      3.5863                 1.0725                 1.0902
 Frc consts  --      4.8281                 3.0075                 6.5568
 IR Inten    --      1.8029                17.8203                22.0626

                     22                     23                     24
                      A                      A                      A
 Frequencies --   3226.8103              3233.2299              3251.2314
 Red. masses --      1.0948                 1.0926                 1.1041
 Frc consts  --      6.7163                 6.7296                 6.8761
 IR Inten    --      6.6130                 0.2286                 2.6233

 - Thermochemistry -
 -------------------
 Temperature   298.150 Kelvin.  Pressure   1.00000 Atm.
 Atom     1 has atomic number  1 and mass   1.00783

 Molecular mass:    67.04220 amu.
 Principal axes and moments of inertia in atomic units:
                           1         2         3
     Eigenvalues --   196.18494 204.27648 392.85326
           X           -0.37684   0.92626  -0.00492
           Y           -0.01844  -0.00219   0.99983
           Z            0.92609   0.37687   0.01790
 This molecule is an asymmetric top.
 Rotational symmetry number  1.
 Rotational temperatures (Kelvin)      0.44149     0.42400     0.22047
 Rotational constants (GHZ):           9.19918     8.83480     4.59393
    1 imaginary frequencies ignored.
 Zero-point vibrational energy     202853.1 (Joules/Mol)
                                   48.48306 (Kcal/Mol)
 Warning -- explicit consideration of   1 degrees of freedom as
           vibrations may cause significant error
 Vibrational temperatures:    850.12   919.70  1087.25  1195.64  1257.75
          (Kelvin)           1275.13  1283.73  1352.07  1375.37  1536.55
                             1574.38  1632.84  1694.76  1794.32  1886.87
                             2062.67  2133.11  2174.86  3138.87  4596.90
                             4642.66  4651.90  4677.80

 Zero-point correction=                           0.077263 (Hartree/Particle)
 Thermal correction to Energy=                    0.080959
 Thermal correction to Enthalpy=                  0.081903
 Thermal correction to Gibbs Free Energy=         0.050977
 Sum of electronic and zero-point Energies=           -210.106752
 Sum of electronic and thermal Energies=              -210.103055
 Sum of electronic and thermal Enthalpies=            -210.102111
 Sum of electronic and thermal Free Energies=         -210.133037

                     E (Thermal)             CV                S
                      KCal/Mol        Cal/Mol-Kelvin    Cal/Mol-Kelvin
 Total                   50.803             13.368             65.089
 Electronic               0.000              0.000              0.000
 Translational            0.889              2.981             38.526
 Rotational               0.889              2.981             24.269
 Vibrational             49.025              7.406              2.294
 Vibration     1          0.948              1.051              0.466

 Optimization completed.
    -- Stationary point found.
 Normal termination of Gaussian 16 at Fri Jun 10 23:46:34 2022.
