 Gaussian 16, Revision A.03,
 Gaussian 16:  ES64L-G16RevA.03 25-Dec-2016

 ----------------------------------------------------------------------
 # Opt=(Z-matrix, MaxStep=10) B3LYP/Def2TZVP geom=allcheckpoint guess=r
 ead Field=read NoSymm freq=noraman pop=none
 ----------------------------------------------------------------------

 Structure from the checkpoint file:  "checkpoint.chk"
 ------------------
 int_zmat_initalOpt
 ------------------
 Charge =  0 Multiplicity = 1

 SCF Done:  E(RB3LYP) =  -195.372071378     A.U. after    9 cycles
 SCF Done:  E(RB3LYP) =  -195.372070089     A.U. after   10 cycles
 SCF Done:  E(RB3LYP) =  -195.372090877     A.U. after    9 cycles
 SCF Done:  E(RB3LYP) =  -195.372098095     A.U. after   10 cycles
 SCF Done:  E(RB3LYP) =  -195.372098861     A.U. after    8 cycles
 Optimization completed.
    -- Stationary point found.
 Normal termination of Gaussian 16 at Fri Jun 10 12:01:54 2022.

 --------------------------------------------------------------------
 #N Geom=AllCheck Guess=TCheck SCRF=Check GenChk RB3LYP/def2TZVP Freq
 --------------------------------------------------------------------

 Structure from the checkpoint file:  "checkpoint.chk"
 ------------------
 int_zmat_initalOpt
 ------------------
 Charge =  0 Multiplicity = 1

                          Input orientation:
 ---------------------------------------------------------------------
 Center     Atomic      Atomic             Coordinates (Angstroms)
 Number     Number       Type             X           Y           Z
 ---------------------------------------------------------------------
      1          6           0        0.000000    0.000000    0.000000
      2          6           0        0.000000    0.000000    1.477725
      3          6           0        1.313766    0.000000   -0.768412
      4          6           0        0.408332   -1.192337   -0.818745
      5          1           0       -0.768786    0.627875   -0.434380
      6          1           0        2.219169   -0.077346   -0.179976
      7          1           0        1.387962    0.633901   -1.641317
      8          1           0        0.720927   -2.088628   -0.299481
      9          1           0       -0.141496   -1.378348   -1.730899
     10          6           0        0.295372   -1.011726    2.292269
     11          1           0       -0.266491    0.954882    1.925758
     12          1           0        0.537853   -2.000548    1.921241
     13          1           0        0.277129   -0.883126    3.368371
 ---------------------------------------------------------------------

 SCF Done:  E(RB3LYP) =  -195.372098861     A.U. after    1 cycles

 Isotropic polarizability for W=    0.000000       58.67 Bohr**3.
 End of Minotr F.D. properties file   721 does not exist.

                      1                      2                      3
                      A                      A                      A
 Frequencies --     62.3845               269.7887               298.9326
 Red. masses --      1.9370                 2.6712                 1.8404
 Frc consts  --      0.0044                 0.1146                 0.0969
 IR Inten    --      0.5832                 0.7125                 1.1158

                      4                      5                      6
                      A                      A                      A
 Frequencies --    537.5988               668.8474               761.9750
 Red. masses --      2.0841                 1.5919                 1.7525
 Frc consts  --      0.3549                 0.4196                 0.5995
 IR Inten    --      1.0789                13.5006                 2.7106

                      7                      8                      9
                      A                      A                      A
 Frequencies --    812.0288               837.6296               885.8481
 Red. masses --      1.3047                 1.6051                 1.4399
 Frc consts  --      0.5069                 0.6635                 0.6657
 IR Inten    --      0.2811                 7.6685                44.3036

                     10                     11                     12
                      A                      A                      A
 Frequencies --    911.2431               945.0733              1028.4367
 Red. masses --      1.9989                 2.5120                 1.1256
 Frc consts  --      0.9780                 1.3219                 0.7014
 IR Inten    --      5.9887                19.5656                16.9049

                     13                     14                     15
                      A                      A                      A
 Frequencies --   1054.5363              1084.2403              1091.9808
 Red. masses --      1.1929                 1.2978                 1.5795
 Frc consts  --      0.7816                 0.8989                 1.1097
 IR Inten    --      7.2491                 4.8006                 9.7047

                     16                     17                     18
                      A                      A                      A
 Frequencies --   1122.5472              1138.5770              1203.6101
 Red. masses --      1.5129                 1.1834                 1.3852
 Frc consts  --      1.1233                 0.9038                 1.1823
 IR Inten    --      3.3032                 1.0880                 3.0247

                     19                     20                     21
                      A                      A                      A
 Frequencies --   1230.1778              1336.4113              1412.3905
 Red. masses --      1.9265                 1.2630                 1.4562
 Frc consts  --      1.7177                 1.3291                 1.7116
 IR Inten    --      2.8060                 1.5347                 0.5276

                     22                     23                     24
                      A                      A                      A
 Frequencies --   1452.9214              1474.4390              1508.5031
 Red. masses --      1.3160                 1.0987                 1.3115
 Frc consts  --      1.6368                 1.4073                 1.7583
 IR Inten    --      4.4771                 4.1062                 5.3049

                     25                     26                     27
                      A                      A                      A
 Frequencies --   1689.3080              3114.2947              3127.6236
 Red. masses --      4.3463                 1.0761                 1.0557
 Frc consts  --      7.3077                 6.1493                 6.0847
 IR Inten    --     47.4065                17.4810                18.7274

                     28                     29                     30
                      A                      A                      A
 Frequencies --   3128.6048              3137.8779              3155.3092
 Red. masses --      1.0657                 1.0568                 1.0890
 Frc consts  --      6.1461                 6.1310                 6.3877
 IR Inten    --     17.4009                14.7329                 2.1014

                     31                     32                     33
                      A                      A                      A
 Frequencies --   3200.4258              3210.1712              3224.4572
 Red. masses --      1.1145                 1.1182                 1.1158
 Frc consts  --      6.7258                 6.7893                 6.8351
 IR Inten    --     31.7619                 2.4639                 8.1963

 - Thermochemistry -
 -------------------
 Temperature   298.150 Kelvin.  Pressure   1.00000 Atm.
 Atom     1 has atomic number  6 and mass  12.00000

 Molecular mass:    68.06260 amu.
 Principal axes and moments of inertia in atomic units:
                           1         2         3
     Eigenvalues --   157.60954 492.02837 534.24902
           X           -0.20288  -0.06981   0.97671
           Y           -0.06694   0.99611   0.05729
           Z            0.97691   0.05376   0.20676
 This molecule is an asymmetric top.
 Rotational symmetry number  1.
 Rotational temperatures (Kelvin)      0.54955     0.17603     0.16212
 Rotational constants (GHZ):          11.45071     3.66796     3.37809
 Zero-point vibrational energy     299773.4 (Joules/Mol)
                                   71.64756 (Kcal/Mol)
 Warning -- explicit consideration of   4 degrees of freedom as
           vibrations may cause significant error
 Vibrational temperatures:     89.76   388.17   430.10   773.48   962.32
          (Kelvin)           1096.31  1168.33  1205.16  1274.54  1311.08
                             1359.75  1479.69  1517.24  1559.98  1571.12
                             1615.10  1638.16  1731.73  1769.95  1922.80
                             2032.11  2090.43  2121.39  2170.40  2430.54
                             4480.78  4499.95  4501.36  4514.71  4539.79
                             4604.70  4618.72  4639.27

 Zero-point correction=                           0.114178 (Hartree/Particle)
 Thermal correction to Energy=                    0.119637
 Thermal correction to Enthalpy=                  0.120581
 Thermal correction to Gibbs Free Energy=         0.085567
 Sum of electronic and zero-point Energies=           -195.257921
 Sum of electronic and thermal Energies=              -195.252462
 Sum of electronic and thermal Enthalpies=            -195.251518
 Sum of electronic and thermal Free Energies=         -195.286532

                     E (Thermal)             CV                S
                      KCal/Mol        Cal/Mol-Kelvin    Cal/Mol-Kelvin
 Total                   75.073             19.440             73.694
 Electronic               0.000              0.000              0.000
 Translational            0.889              2.981             38.571
 Rotational               0.889              2.981             25.230
 Vibrational             73.296             13.478              9.893
 Vibration     1          0.597              1.972              4.380
 Vibration     2          0.674              1.729              1.598
 Vibration     3          0.692              1.676              1.423
 Vibration     4          0.893              1.167              0.570

 Optimization completed.
    -- Stationary point found.
 Normal termination of Gaussian 16 at Fri Jun 10 12:04:12 2022.
