 Gaussian 16, Revision A.03,
 Gaussian 16:  ES64L-G16RevA.03 25-Dec-2016

 ----------------------------------------------------------------------
 # Opt=(Z-matrix, MaxStep=10) B3LYP/Def2TZVP geom=allcheckpoint guess=r
 ead Field=read NoSymm freq=noraman pop=none
 ----------------------------------------------------------------------

 Structure from the checkpoint file:  "checkpoint.chk"
 ------------------
 int_zmat_initalOpt
 ------------------
 Charge =  0 Multiplicity = 1

 SCF Done:  E(RB3LYP) =  -269.424433280     A.U. after   10 cycles
 SCF Done:  E(RB3LYP) =  -269.424450804     A.U. after    9 cycles
 SCF Done:  E(RB3LYP) =  -269.424458349     A.U. after    9 cycles
 SCF Done:  E(RB3LYP) =  -269.424458764     A.U. after    7 cycles
 Optimization completed.
    -- Stationary point found.
 Normal termination of Gaussian 16 at Fri Jun 10 23:13:21 2022.

 --------------------------------------------------------------------
 #N Geom=AllCheck Guess=TCheck SCRF=Check GenChk RB3LYP/def2TZVP Freq
 --------------------------------------------------------------------

 Structure from the checkpoint file:  "checkpoint.chk"
 ------------------
 int_zmat_initalOpt
 ------------------
 Charge =  0 Multiplicity = 1

                          Input orientation:
 ---------------------------------------------------------------------
 Center     Atomic      Atomic             Coordinates (Angstroms)
 Number     Number       Type             X           Y           Z
 ---------------------------------------------------------------------
      1          1           0        0.000000    0.000000    0.000000
      2          6           0        0.000000    0.000000    1.080100
      3          6           0        1.165421    0.000000    1.743103
      4          6           0       -1.217864    0.250092    1.835959
      5          1           0        2.137515    0.032701    1.267615
      6          8           0        1.259489    0.073815    3.091918
      7          6           0       -1.185845    0.167660    3.168604
      8          1           0       -2.104618    0.587035    1.314622
      9          6           0        0.074493   -0.315989    3.822569
     10          1           0       -2.029265    0.438394    3.789592
     11          1           0        0.203080    0.095544    4.822422
     12          1           0        0.084364   -1.417342    3.900012
 ---------------------------------------------------------------------

 SCF Done:  E(RB3LYP) =  -269.424458764     A.U. after    1 cycles

 Isotropic polarizability for W=    0.000000       59.64 Bohr**3.
 End of Minotr F.D. properties file   721 does not exist.

                      1                      2                      3
                      A                      A                      A
 Frequencies --    167.5305               334.8857               500.6646
 Red. masses --      2.2160                 2.7309                 3.2672
 Frc consts  --      0.0366                 0.1804                 0.4825
 IR Inten    --      2.0586                11.2778                16.0341

                      4                      5                      6
                      A                      A                      A
 Frequencies --    573.3204               618.2407               726.5617
 Red. masses --      3.2237                 4.8471                 1.4921
 Frc consts  --      0.6243                 1.0916                 0.4641
 IR Inten    --     12.4510                 1.0729                50.6678

                      7                      8                      9
                      A                      A                      A
 Frequencies --    777.6777               859.9681               919.6115
 Red. masses --      1.3486                 3.8485                 1.4079
 Frc consts  --      0.4806                 1.6769                 0.7015
 IR Inten    --     13.4123                14.3799                 4.9002

                     10                     11                     12
                      A                      A                      A
 Frequencies --    956.8326               973.5371               981.3777
 Red. masses --      2.8691                 2.4649                 1.9445
 Frc consts  --      1.5476                 1.3765                 1.1034
 IR Inten    --      9.5401                22.2111                 1.7473

                     13                     14                     15
                      A                      A                      A
 Frequencies --    999.2314              1083.1338              1097.0509
 Red. masses --      1.7535                 2.2747                 2.0512
 Frc consts  --      1.0316                 1.5723                 1.4545
 IR Inten    --      5.0671                 5.2607                60.9594

                     16                     17                     18
                      A                      A                      A
 Frequencies --   1194.9953              1246.3917              1279.2652
 Red. masses --      1.1109                 1.3976                 1.1466
 Frc consts  --      0.9347                 1.2792                 1.1055
 IR Inten    --      0.5085                39.3319                11.1675

                     19                     20                     21
                      A                      A                      A
 Frequencies --   1370.0737              1414.8810              1447.5147
 Red. masses --      1.2108                 1.5466                 1.7331
 Frc consts  --      1.3391                 1.8242                 2.1395
 IR Inten    --      0.7592                12.1503                 6.1406

                     22                     23                     24
                      A                      A                      A
 Frequencies --   1499.1150              1622.0528              1695.6572
 Red. masses --      1.1115                 5.8255                 5.4269
 Frc consts  --      1.4718                 9.0305                 9.1935
 IR Inten    --      1.0894                40.9756                30.5908

                     25                     26                     27
                      A                      A                      A
 Frequencies --   2899.0826              3099.4941              3181.0714
 Red. masses --      1.0739                 1.0881                 1.0863
 Frc consts  --      5.3177                 6.1586                 6.4769
 IR Inten    --    138.3449                20.3697                 0.9205

                     28                     29                     30
                      A                      A                      A
 Frequencies --   3184.7009              3200.4374              3215.4211
 Red. masses --      1.0886                 1.0974                 1.0971
 Frc consts  --      6.5051                 6.6229                 6.6827
 IR Inten    --      8.8875                 5.2345                10.2364

 - Thermochemistry -
 -------------------
 Temperature   298.150 Kelvin.  Pressure   1.00000 Atm.
 Atom     1 has atomic number  1 and mass   1.00783

 Molecular mass:    82.04186 amu.
 Principal axes and moments of inertia in atomic units:
                           1         2         3
     Eigenvalues --   323.34577 336.27178 632.93891
           X            0.93803  -0.33670   0.08203
           Y           -0.10476  -0.04987   0.99325
           Z            0.33034   0.94029   0.08205
 This molecule is an asymmetric top.
 Rotational symmetry number  1.
 Rotational temperatures (Kelvin)      0.26787     0.25757     0.13684
 Rotational constants (GHZ):           5.58146     5.36691     2.85137
 Zero-point vibrational energy     257913.6 (Joules/Mol)
                                   61.64282 (Kcal/Mol)
 Warning -- explicit consideration of   5 degrees of freedom as
           vibrations may cause significant error
 Vibrational temperatures:    241.04   481.83   720.34   824.88   889.51
          (Kelvin)           1045.36  1118.90  1237.30  1323.12  1376.67
                             1400.70  1411.98  1437.67  1558.39  1578.41
                             1719.33  1793.28  1840.58  1971.23  2035.70
                             2082.65  2156.89  2333.77  2439.67  4171.13
                             4459.48  4576.85  4582.07  4604.72  4626.27

 Zero-point correction=                           0.098234 (Hartree/Particle)
 Thermal correction to Energy=                    0.103195
 Thermal correction to Enthalpy=                  0.104139
 Thermal correction to Gibbs Free Energy=         0.070095
 Sum of electronic and zero-point Energies=           -269.326225
 Sum of electronic and thermal Energies=              -269.321263
 Sum of electronic and thermal Enthalpies=            -269.320319
 Sum of electronic and thermal Free Energies=         -269.354364

                     E (Thermal)             CV                S
                      KCal/Mol        Cal/Mol-Kelvin    Cal/Mol-Kelvin
 Total                   64.756             18.479             71.653
 Electronic               0.000              0.000              0.000
 Translational            0.889              2.981             39.128
 Rotational               0.889              2.981             25.734
 Vibrational             62.979             12.517              6.790
 Vibration     1          0.624              1.882              2.463
 Vibration     2          0.716              1.606              1.236
 Vibration     3          0.856              1.249              0.656
 Vibration     4          0.930              1.089              0.498
 Vibration     5          0.978              0.993              0.419

                       ! Non-Optimized Parameters !
 Normal termination of Gaussian 16 at Fri Jun 10 23:15:58 2022.
