 Gaussian 16, Revision A.03,
 Gaussian 16:  ES64L-G16RevA.03 25-Dec-2016

 ----------------------------------------------------------------------
 # Opt=(TS, CalcFC, noeigentest, Z-matrix, MaxStep=10) Field=read NoSym
 m B3LYP/Def2TZVP freq=noraman pop=none
 ----------------------------------------------------------------------

 -----------------
 ts_zmat_initalOpt
 -----------------
 Symbolic Z-matrix:
 Charge =  0 Multiplicity = 1

 SCF Done:  E(RB3LYP) =  -269.392748279     A.U. after   14 cycles
 SCF Done:  E(RB3LYP) =  -269.392762357     A.U. after   10 cycles
 Optimization completed.
    -- Stationary point found.
 Normal termination of Gaussian 16 at Fri Jun 10 22:24:03 2022.

 --------------------------------------------------------------------
 #N Geom=AllCheck Guess=TCheck SCRF=Check GenChk RB3LYP/def2TZVP Freq
 --------------------------------------------------------------------

 Structure from the checkpoint file:  "checkpoint.chk"
 -----------------
 ts_zmat_initalOpt
 -----------------
 Charge =  0 Multiplicity = 1

                          Input orientation:
 ---------------------------------------------------------------------
 Center     Atomic      Atomic             Coordinates (Angstroms)
 Number     Number       Type             X           Y           Z
 ---------------------------------------------------------------------
      1          1           0        0.000000    0.000000    0.000000
      2          6           0        0.000000    0.000000    1.081339
      3          6           0        1.261356    0.000000    1.711292
      4          6           0       -1.107178    0.503698    1.774772
      5          1           0        2.117937    0.208196    1.058698
      6          8           0        1.516515   -0.060249    2.943950
      7          6           0       -1.109194    0.565289    3.161003
      8          1           0       -1.883214    1.006470    1.205847
      9          6           0       -0.223405   -0.270085    3.836497
     10          1           0       -1.659160    1.338693    3.682520
     11          1           0        0.018953   -0.094860    4.877077
     12          1           0       -0.136823   -1.297927    3.512303
 ---------------------------------------------------------------------

 SCF Done:  E(RB3LYP) =  -269.392762357     A.U. after    1 cycles

 Isotropic polarizability for W=    0.000000       65.24 Bohr**3.
 End of Minotr F.D. properties file   721 does not exist.

 ******    1 imaginary frequencies (negative Signs) ******

                      1                      2                      3
                      A                      A                      A
 Frequencies --   -514.5082               242.6567               376.2361
 Red. masses --      5.6906                 2.8951                 2.5476
 Frc consts  --      0.8876                 0.1004                 0.2125
 IR Inten    --     44.6622                 4.6373                 9.3537

                      4                      5                      6
                      A                      A                      A
 Frequencies --    420.5289               571.7005               589.3182
 Red. masses --      4.3634                 2.6743                 3.7681
 Frc consts  --      0.4546                 0.5150                 0.7710
 IR Inten    --      4.4116                23.8460                 2.4919

                      7                      8                      9
                      A                      A                      A
 Frequencies --    719.1745               788.8037               883.9864
 Red. masses --      1.2481                 1.3779                 2.1166
 Frc consts  --      0.3803                 0.5051                 0.9745
 IR Inten    --     50.2135                29.0183                24.7978

                     10                     11                     12
                      A                      A                      A
 Frequencies --    953.7550               964.2671               979.9469
 Red. masses --      1.5530                 1.4308                 1.4612
 Frc consts  --      0.8323                 0.7839                 0.8267
 IR Inten    --     47.1312                 4.5864                 3.1910

                     13                     14                     15
                      A                      A                      A
 Frequencies --   1017.0005              1042.2743              1099.4214
 Red. masses --      3.5947                 1.7667                 1.3315
 Frc consts  --      2.1905                 1.1308                 0.9482
 IR Inten    --     16.8206                 4.6199                18.7177

                     16                     17                     18
                      A                      A                      A
 Frequencies --   1113.5292              1182.3886              1248.3476
 Red. masses --      1.5545                 1.2172                 1.3670
 Frc consts  --      1.1357                 1.0026                 1.2552
 IR Inten    --      1.0537                13.1337                 2.5859

                     19                     20                     21
                      A                      A                      A
 Frequencies --   1348.9664              1403.0823              1441.3149
 Red. masses --      1.3692                 1.8637                 1.8010
 Frc consts  --      1.4680                 2.1617                 2.2044
 IR Inten    --     42.7769                59.7295                62.1426

                     22                     23                     24
                      A                      A                      A
 Frequencies --   1496.9160              1555.3340              1617.0396
 Red. masses --      1.7331                 2.2765                 5.6360
 Frc consts  --      2.2881                 3.2446                 8.6829
 IR Inten    --      5.2994                23.3821               119.7420

                     25                     26                     27
                      A                      A                      A
 Frequencies --   3027.6856              3140.6212              3146.3825
 Red. masses --      1.0853                 1.0572                 1.0873
 Frc consts  --      5.8616                 6.1439                 6.3420
 IR Inten    --     36.7647                17.0062                 8.3895

                     28                     29                     30
                      A                      A                      A
 Frequencies --   3176.1467              3195.6151              3224.6819
 Red. masses --      1.0921                 1.0914                 1.1177
 Frc consts  --      6.4910                 6.5666                 6.8477
 IR Inten    --      6.0117                 6.2593                 6.0545

 - Thermochemistry -
 -------------------
 Temperature   298.150 Kelvin.  Pressure   1.00000 Atm.
 Atom     1 has atomic number  1 and mass   1.00783

 Molecular mass:    82.04186 amu.
 Principal axes and moments of inertia in atomic units:
                           1         2         3
     Eigenvalues --   325.62256 385.80152 666.02236
           X            0.93815   0.26938   0.21752
           Y           -0.18392  -0.14457   0.97225
           Z           -0.29335   0.95212   0.08609
 This molecule is an asymmetric top.
 Rotational symmetry number  1.
 Rotational temperatures (Kelvin)      0.26599     0.22450     0.13005
 Rotational constants (GHZ):           5.54243     4.67790     2.70973
    1 imaginary frequencies ignored.
 Zero-point vibrational energy     251019.1 (Joules/Mol)
                                   59.99501 (Kcal/Mol)
 Warning -- explicit consideration of   5 degrees of freedom as
           vibrations may cause significant error
 Vibrational temperatures:    349.13   541.32   605.05   822.55   847.90
          (Kelvin)           1034.73  1134.91  1271.86  1372.24  1387.37
                             1409.93  1463.24  1499.60  1581.82  1602.12
                             1701.19  1796.09  1940.86  2018.72  2073.73
                             2153.73  2237.78  2326.56  4356.16  4518.65
                             4526.94  4569.77  4597.78  4639.60

 Zero-point correction=                           0.095608 (Hartree/Particle)
 Thermal correction to Energy=                    0.100454
 Thermal correction to Enthalpy=                  0.101398
 Thermal correction to Gibbs Free Energy=         0.067581
 Sum of electronic and zero-point Energies=           -269.297154
 Sum of electronic and thermal Energies=              -269.292308
 Sum of electronic and thermal Enthalpies=            -269.291364
 Sum of electronic and thermal Free Energies=         -269.325182

                     E (Thermal)             CV                S
                      KCal/Mol        Cal/Mol-Kelvin    Cal/Mol-Kelvin
 Total                   63.036             18.206             71.175
 Electronic               0.000              0.000              0.000
 Translational            0.889              2.981             39.128
 Rotational               0.889              2.981             25.929
 Vibrational             61.258             12.244              6.118
 Vibration     1          0.659              1.775              1.783
 Vibration     2          0.747              1.521              1.054
 Vibration     3          0.783              1.426              0.890
 Vibration     4          0.928              1.092              0.501
 Vibration     5          0.947              1.055              0.468

 Optimization completed.
    -- Stationary point found.
 Normal termination of Gaussian 16 at Fri Jun 10 22:26:47 2022.
