 Gaussian 16, Revision A.03,
 Gaussian 16:  ES64L-G16RevA.03 25-Dec-2016

 ----------------------------------------------------------------------
 # Opt=(TS, CalcFC, noeigentest, Z-matrix, MaxStep=10) geom=allcheckpoi
 nt guess=read Field=read NoSymm B3LYP/Def2TZVP freq=noraman pop=none
 ----------------------------------------------------------------------

 Structure from the checkpoint file:  "checkpoint.chk"
 -----------------
 ts_zmat_initalOpt
 -----------------
 Charge =  0 Multiplicity = 1

 SCF Done:  E(RB3LYP) =  -269.395924646     A.U. after   10 cycles
 SCF Done:  E(RB3LYP) =  -269.395944647     A.U. after   11 cycles
 Optimization completed.
    -- Stationary point found.
 Normal termination of Gaussian 16 at Fri Jun 10 23:20:14 2022.

 --------------------------------------------------------------------
 #N Geom=AllCheck Guess=TCheck SCRF=Check GenChk RB3LYP/def2TZVP Freq
 --------------------------------------------------------------------

 Structure from the checkpoint file:  "checkpoint.chk"
 -----------------
 ts_zmat_initalOpt
 -----------------
 Charge =  0 Multiplicity = 1

                          Input orientation:
 ---------------------------------------------------------------------
 Center     Atomic      Atomic             Coordinates (Angstroms)
 Number     Number       Type             X           Y           Z
 ---------------------------------------------------------------------
      1          1           0        0.000000    0.000000    0.000000
      2          6           0        0.000000    0.000000    1.080987
      3          6           0        1.252114    0.000000    1.715609
      4          6           0       -1.124097    0.470234    1.776013
      5          1           0        2.112228    0.213955    1.069638
      6          8           0        1.506312   -0.062488    2.955797
      7          6           0       -1.132418    0.506506    3.160510
      8          1           0       -1.909586    0.960063    1.209841
      9          6           0       -0.229708   -0.325872    3.820613
     10          1           0       -1.719790    1.239731    3.698523
     11          1           0       -0.003714   -0.173278    4.868866
     12          1           0       -0.127308   -1.345637    3.475486
 ---------------------------------------------------------------------

 SCF Done:  E(RB3LYP) =  -269.395944647     A.U. after    1 cycles

 Isotropic polarizability for W=    0.000000       65.08 Bohr**3.
 End of Minotr F.D. properties file   721 does not exist.

 ******    1 imaginary frequencies (negative Signs) ******

                      1                      2                      3
                      A                      A                      A
 Frequencies --   -534.1213               244.4632               374.8358
 Red. masses --      5.6635                 2.8817                 2.5626
 Frc consts  --      0.9519                 0.1015                 0.2121
 IR Inten    --     44.4921                 4.9430                10.2873

                      4                      5                      6
                      A                      A                      A
 Frequencies --    422.9627               573.4625               589.7891
 Red. masses --      4.3168                 2.8024                 3.5545
 Frc consts  --      0.4550                 0.5430                 0.7285
 IR Inten    --      4.7451                23.4989                 4.0650

                      7                      8                      9
                      A                      A                      A
 Frequencies --    719.5291               795.3374               882.8314
 Red. masses --      1.2609                 1.3786                 2.0660
 Frc consts  --      0.3846                 0.5138                 0.9487
 IR Inten    --     47.5707                26.6300                21.5590

                     10                     11                     12
                      A                      A                      A
 Frequencies --    951.8660               961.5613               982.6356
 Red. masses --      1.6309                 1.4483                 1.4195
 Frc consts  --      0.8706                 0.7890                 0.8075
 IR Inten    --     43.6917                 7.5122                 6.4077

                     13                     14                     15
                      A                      A                      A
 Frequencies --   1019.4852              1043.0415              1100.3433
 Red. masses --      3.5632                 1.7531                 1.3415
 Frc consts  --      2.1820                 1.1237                 0.9570
 IR Inten    --     10.2942                 6.4252                19.6803

                     16                     17                     18
                      A                      A                      A
 Frequencies --   1118.0924              1182.1477              1246.3848
 Red. masses --      1.5769                 1.2215                 1.3503
 Frc consts  --      1.1614                 1.0058                 1.2359
 IR Inten    --      2.0257                14.6098                 2.7094

                     19                     20                     21
                      A                      A                      A
 Frequencies --   1340.6058              1407.0145              1438.7325
 Red. masses --      1.3990                 1.8195                 1.8258
 Frc consts  --      1.4814                 2.1222                 2.2268
 IR Inten    --     48.6068                56.2289                62.2236

                     22                     23                     24
                      A                      A                      A
 Frequencies --   1495.8257              1552.1609              1613.2779
 Red. masses --      1.7026                 2.2438                 5.3468
 Frc consts  --      2.2445                 3.1850                 8.1990
 IR Inten    --      8.6893                23.7605               120.0840

                     25                     26                     27
                      A                      A                      A
 Frequencies --   3024.6454              3136.7901              3156.7366
 Red. masses --      1.0851                 1.0568                 1.0876
 Frc consts  --      5.8488                 6.1263                 6.3854
 IR Inten    --     48.9551                21.0417                 3.1513

                     28                     29                     30
                      A                      A                      A
 Frequencies --   3179.5011              3201.9147              3219.4128
 Red. masses --      1.0931                 1.0918                 1.1174
 Frc consts  --      6.5109                 6.5948                 6.8238
 IR Inten    --      4.6386                 3.2243                 8.5928

 - Thermochemistry -
 -------------------
 Temperature   298.150 Kelvin.  Pressure   1.00000 Atm.
 Atom     1 has atomic number  1 and mass   1.00783

 Molecular mass:    82.04186 amu.
 Principal axes and moments of inertia in atomic units:
                           1         2         3
     Eigenvalues --   325.00547 385.39588 665.33073
           X            0.94745   0.24980   0.19982
           Y           -0.16558  -0.15152   0.97449
           Z           -0.27371   0.95637   0.10219
 This molecule is an asymmetric top.
 Rotational symmetry number  1.
 Rotational temperatures (Kelvin)      0.26650     0.22474     0.13018
 Rotational constants (GHZ):           5.55296     4.68282     2.71255
    1 imaginary frequencies ignored.
 Zero-point vibrational energy     251068.6 (Joules/Mol)
                                   60.00683 (Kcal/Mol)
 Warning -- explicit consideration of   5 degrees of freedom as
           vibrations may cause significant error
 Vibrational temperatures:    351.73   539.31   608.55   825.08   848.57
          (Kelvin)           1035.24  1144.31  1270.20  1369.52  1383.47
                             1413.79  1466.81  1500.70  1583.15  1608.69
                             1700.85  1793.27  1928.83  2024.38  2070.02
                             2152.16  2233.21  2321.15  4351.79  4513.14
                             4541.84  4574.59  4606.84  4632.02

 Zero-point correction=                           0.095627 (Hartree/Particle)
 Thermal correction to Energy=                    0.100466
 Thermal correction to Enthalpy=                  0.101410
 Thermal correction to Gibbs Free Energy=         0.067607
 Sum of electronic and zero-point Energies=           -269.300318
 Sum of electronic and thermal Energies=              -269.295478
 Sum of electronic and thermal Enthalpies=            -269.294534
 Sum of electronic and thermal Free Energies=         -269.328338

                     E (Thermal)             CV                S
                      KCal/Mol        Cal/Mol-Kelvin    Cal/Mol-Kelvin
 Total                   63.044             18.186             71.146
 Electronic               0.000              0.000              0.000
 Translational            0.889              2.981             39.128
 Rotational               0.889              2.981             25.925
 Vibrational             61.266             12.225              6.093
 Vibration     1          0.660              1.772              1.770
 Vibration     2          0.746              1.524              1.060
 Vibration     3          0.785              1.420              0.882
 Vibration     4          0.930              1.089              0.498
 Vibration     5          0.947              1.054              0.468

 Optimization completed.
    -- Stationary point found.
 Normal termination of Gaussian 16 at Fri Jun 10 23:22:52 2022.
