 Gaussian 16, Revision A.03,
 Gaussian 16:  ES64L-G16RevA.03 25-Dec-2016

 ----------------------------------------------------------------------
 # Opt=(Z-matrix, MaxStep=10) B3LYP/Def2TZVP geom=allcheckpoint guess=r
 ead Field=read NoSymm freq=noraman pop=none
 ----------------------------------------------------------------------

 Structure from the checkpoint file:  "checkpoint.chk"
 ------------------
 int_zmat_initalOpt
 ------------------
 Charge =  0 Multiplicity = 1

 SCF Done:  E(RB3LYP) =  -210.250544191     A.U. after   10 cycles
 SCF Done:  E(RB3LYP) =  -210.250548758     A.U. after    8 cycles
 SCF Done:  E(RB3LYP) =  -210.250549576     A.U. after    7 cycles
 SCF Done:  E(RB3LYP) =  -210.250549959     A.U. after    7 cycles
 SCF Done:  E(RB3LYP) =  -210.250550278     A.U. after    6 cycles
 SCF Done:  E(RB3LYP) =  -210.250550459     A.U. after    6 cycles
 SCF Done:  E(RB3LYP) =  -210.250550570     A.U. after    6 cycles
 Optimization completed.
    -- Stationary point found.
 Normal termination of Gaussian 16 at Fri Jun 10 02:10:49 2022.

 --------------------------------------------------------------------
 #N Geom=AllCheck Guess=TCheck SCRF=Check GenChk RB3LYP/def2TZVP Freq
 --------------------------------------------------------------------

 Structure from the checkpoint file:  "checkpoint.chk"
 ------------------
 int_zmat_initalOpt
 ------------------
 Charge =  0 Multiplicity = 1

                          Input orientation:
 ---------------------------------------------------------------------
 Center     Atomic      Atomic             Coordinates (Angstroms)
 Number     Number       Type             X           Y           Z
 ---------------------------------------------------------------------
      1          6           0        0.000000    0.000000    0.000000
      2          6           0        0.000000    0.000000    1.420762
      3          6           0        1.309891    0.000000   -0.411834
      4          1           0       -0.864790    0.001037   -0.642292
      5          6           0        1.308971    0.002445    1.833208
      6          7           0        2.100108    0.000404    0.711242
      7          1           0        1.739193    0.006172   -1.399294
      8          1           0       -0.864287    0.002263    2.063640
      9          1           0        1.736384    0.009443    2.821340
     10          1           0        3.102693    0.020665    0.713120
 ---------------------------------------------------------------------

 SCF Done:  E(RB3LYP) =  -210.250550570     A.U. after    1 cycles

 Isotropic polarizability for W=    0.000000       49.85 Bohr**3.
 End of Minotr F.D. properties file   721 does not exist.

                      1                      2                      3
                      A                      A                      A
 Frequencies --    399.0113               627.1312               638.2435
 Red. masses --      1.3846                 3.1910                 2.4422
 Frc consts  --      0.1299                 0.7394                 0.5861
 IR Inten    --     69.9737                 0.0038                 0.1637

                      4                      5                      6
                      A                      A                      A
 Frequencies --    672.7888               726.1088               828.6170
 Red. masses --      1.2933                 1.2039                 1.2212
 Frc consts  --      0.3449                 0.3740                 0.4940
 IR Inten    --      1.4035               151.5209                 7.1410

                      7                      8                      9
                      A                      A                      A
 Frequencies --    878.3486               887.7300               904.5564
 Red. masses --      5.0466                 1.3012                 4.0866
 Frc consts  --      2.2939                 0.6042                 1.9701
 IR Inten    --      1.9392                 0.0235                 0.4985

                     10                     11                     12
                      A                      A                      A
 Frequencies --   1035.9908              1068.4603              1089.3236
 Red. masses --      1.4618                 1.4182                 1.5734
 Frc consts  --      0.9243                 0.9539                 1.1000
 IR Inten    --     33.9474                29.4637                 5.5195

                     13                     14                     15
                      A                      A                      A
 Frequencies --   1153.5197              1173.1276              1315.6559
 Red. masses --      1.2464                 3.4369                 1.3660
 Frc consts  --      0.9771                 2.7868                 1.3931
 IR Inten    --      0.8599                 4.8654                 0.8054

                     16                     17                     18
                      A                      A                      A
 Frequencies --   1417.9196              1447.1310              1497.4875
 Red. masses --      4.2009                 2.9167                 2.6369
 Frc consts  --      4.9761                 3.5988                 3.4840
 IR Inten    --      4.3271                 5.9679                 7.0072

                     19                     20                     21
                      A                      A                      A
 Frequencies --   1577.8375              3240.8823              3249.0794
 Red. masses --      3.1032                 1.0880                 1.0920
 Frc consts  --      4.5518                 6.7327                 6.7917
 IR Inten    --      2.3449                 0.1755                 1.1876

                     22                     23                     24
                      A                      A                      A
 Frequencies --   3260.0326              3267.7152              3674.3754
 Red. masses --      1.0999                 1.1068                 1.0801
 Frc consts  --      6.8872                 6.9634                 8.5915
 IR Inten    --      4.1128                 0.5393                43.5561

 - Thermochemistry -
 -------------------
 Temperature   298.150 Kelvin.  Pressure   1.00000 Atm.
 Atom     1 has atomic number  6 and mass  12.00000

 Molecular mass:    67.04220 amu.
 Principal axes and moments of inertia in atomic units:
                           1         2         3
     Eigenvalues --   196.47778 199.19412 395.66872
           X            0.99999  -0.00532  -0.00118
           Y            0.00119   0.00075   1.00000
           Z            0.00532   0.99999  -0.00076
 This molecule is an asymmetric top.
 Rotational symmetry number  1.
 Rotational temperatures (Kelvin)      0.44083     0.43482     0.21891
 Rotational constants (GHZ):           9.18547     9.06021     4.56124
 Zero-point vibrational energy     215513.7 (Joules/Mol)
                                   51.50901 (Kcal/Mol)
 Warning -- explicit consideration of   1 degrees of freedom as
           vibrations may cause significant error
 Vibrational temperatures:    574.09   902.30   918.29   967.99  1044.71
          (Kelvin)           1192.20  1263.75  1277.25  1301.45  1490.56
                             1537.28  1567.29  1659.66  1687.87  1892.94
                             2040.07  2082.10  2154.55  2270.16  4662.91
                             4674.70  4690.46  4701.51  5286.61

 Zero-point correction=                           0.082085 (Hartree/Particle)
 Thermal correction to Energy=                    0.086136
 Thermal correction to Enthalpy=                  0.087080
 Thermal correction to Gibbs Free Energy=         0.055642
 Sum of electronic and zero-point Energies=           -210.168466
 Sum of electronic and thermal Energies=              -210.164415
 Sum of electronic and thermal Enthalpies=            -210.163470
 Sum of electronic and thermal Free Energies=         -210.194908

                     E (Thermal)             CV                S
                      KCal/Mol        Cal/Mol-Kelvin    Cal/Mol-Kelvin
 Total                   54.051             15.029             66.167
 Electronic               0.000              0.000              0.000
 Translational            0.889              2.981             38.526
 Rotational               0.889              2.981             24.252
 Vibrational             52.274              9.067              3.388
 Vibration     1          0.765              1.472              0.966

 Optimization completed.
    -- Stationary point found.
 Normal termination of Gaussian 16 at Fri Jun 10 02:12:16 2022.
