 Gaussian 16, Revision A.03,
 Gaussian 16:  ES64L-G16RevA.03 25-Dec-2016

 --------------------------
 # sp B3LYP/Def2TZVP NoSymm
 --------------------------

 ----------------------------------
 int_initalOptXYZ_aligned_AlignedSp
 ----------------------------------
 Symbolic Z-matrix:
 Charge =  0 Multiplicity = 1

                          Input orientation:
 ---------------------------------------------------------------------
 Center     Atomic      Atomic             Coordinates (Angstroms)
 Number     Number       Type             X           Y           Z
 ---------------------------------------------------------------------
      1          7           0        0.477415    0.209801    0.096326
      2          6           0       -0.893445    0.397214   -0.542272
      3          8           0        0.426951    0.491469    1.424881
      4          6           0       -1.972561   -0.418263    0.138155
      5          1           0       -1.904541   -0.270119    1.214815
      6          1           0       -1.898291   -1.483316   -0.085176
      7          1           0       -2.949500   -0.076971   -0.208170
      8          1           0       -1.095929    1.460014   -0.422982
      9          1           0       -0.811360    0.168009   -1.608176
     10          6           0        1.432544    1.149408   -0.572507
     11          1           0        2.398587    1.013404   -0.095215
     12          1           0        1.075177    2.156445   -0.379292
     13          1           0        1.495903    0.956228   -1.645620
     14          6           0        0.963092   -1.194333   -0.103841
     15          1           0        0.293659   -1.853061    0.438195
     16          1           0        1.952233   -1.249618    0.340867
     17          1           0        0.997260   -1.456299   -1.163427
 ---------------------------------------------------------------------

 SCF Done:  E(RB3LYP) =  -289.055060850     A.U. after   14 cycles

 Alpha  occ. eigenvalues --  -19.03522 -14.44917 -10.21460 -10.20814 -10.20792
 Alpha  occ. eigenvalues --  -10.16602  -1.05048  -0.82893  -0.77400  -0.73827
 Alpha  occ. eigenvalues --   -0.66879  -0.59423  -0.51491  -0.50265  -0.48070
 Alpha  occ. eigenvalues --   -0.45346  -0.43060  -0.41428  -0.39619  -0.39314
 Alpha  occ. eigenvalues --   -0.37908  -0.36887  -0.35857  -0.20540  -0.20407
 Alpha virt. eigenvalues --    0.01807   0.05308   0.06447   0.06523   0.07643
 Alpha virt. eigenvalues --    0.08735   0.08947   0.10771   0.11731   0.12988
 Alpha virt. eigenvalues --    0.13659   0.14187   0.15180   0.15823   0.18556

 Mulliken charges:
               1
     1  N    0.270536
     2  C   -0.083332
     3  O   -0.627480
     4  C   -0.368421
     5  H    0.156985
     6  H    0.103410
     7  H    0.111851
     8  H    0.106209
     9  H    0.092158
    10  C   -0.242019
    11  H    0.133229
    12  H    0.132808
    13  H    0.102784
    14  C   -0.271973
    15  H    0.144284
    16  H    0.133735
    17  H    0.105234
 Sum of Mulliken charges =  -0.00000

 Dipole moment (field-independent basis, Debye):
    X=              0.0451    Y=             -0.9521    Z=             -4.3799  Tot=              4.4825
 Quadrupole moment (field-independent basis, Debye-Ang):
   XX=            -36.2071   YY=            -37.4784   ZZ=            -45.5813
   XY=             -0.5864   XZ=             -2.0736   YZ=             -2.7460

 1\1\GINC-BHC0026\SP\RB3LYP\def2TZVP\C4H11N1O1\DHANAWAY\10-Jun-2022\0\\
 # sp B3LYP/Def2TZVP NoSymm\\int_initalOptXYZ_aligned_AlignedSp\\0,1\N,
 0,0.477415,0.209801,0.096326\C,0,-0.893445,0.397214,-0.542272\O,0,0.42
 6951,0.491469,1.424881\C,0,-1.972561,-0.418263,0.138155\H,0,-1.904541,
 -0.270119,1.214815\H,0,-1.898291,-1.483316,-0.085176\H,0,-2.9495,-0.07
 6971,-0.20817\H,0,-1.095929,1.460014,-0.422982\H,0,-0.81136,0.168009,-
 1.608176\C,0,1.432544,1.149408,-0.572507\H,0,2.398587,1.013404,-0.0952
 15\H,0,1.075177,2.156445,-0.379292\H,0,1.495903,0.956228,-1.64562\C,0,

 Normal termination of Gaussian 16 at Fri Jun 10 10:52:41 2022.
