 Gaussian 16, Revision A.03,
 Gaussian 16:  ES64L-G16RevA.03 25-Dec-2016

 --------------------------
 # sp B3LYP/Def2TZVP NoSymm
 --------------------------

 ---------------------------------
 ts_initalOptXYZ_aligned_AlignedSp
 ---------------------------------
 Symbolic Z-matrix:
 Charge =  0 Multiplicity = 1

                          Input orientation:
 ---------------------------------------------------------------------
 Center     Atomic      Atomic             Coordinates (Angstroms)
 Number     Number       Type             X           Y           Z
 ---------------------------------------------------------------------
      1          7           0        0.546626    0.000000    0.066636
      2          6           0       -1.240726    0.000009   -0.944094
      3          8           0        0.109010   -0.000005    1.334724
      4          6           0       -2.119820   -0.000001    0.151407
      5          1           0       -1.117306   -0.000006    1.072844
      6          1           0       -2.673371   -0.910962    0.356876
      7          1           0       -2.673374    0.910955    0.356890
      8          1           0       -1.061794    0.908861   -1.505931
      9          1           0       -1.061792   -0.908830   -1.505950
     10          6           0        1.277275    1.225415   -0.260596
     11          1           0        2.207380    1.280165    0.312036
     12          1           0        0.651810    2.076223   -0.001687
     13          1           0        1.503426    1.244676   -1.328148
     14          6           0        1.277267   -1.225417   -0.260607
     15          1           0        0.651797   -2.076222   -0.001703
     16          1           0        2.207372   -1.280177    0.312024
     17          1           0        1.503416   -1.244673   -1.328160
 ---------------------------------------------------------------------

 SCF Done:  E(RB3LYP) =  -289.018861788     A.U. after   13 cycles

 Alpha  occ. eigenvalues --  -19.11060 -14.40685 -10.20521 -10.20521 -10.19199
 Alpha  occ. eigenvalues --  -10.13593  -1.07028  -0.83992  -0.75767  -0.73464
 Alpha  occ. eigenvalues --   -0.62191  -0.58313  -0.51019  -0.49329  -0.48483
 Alpha  occ. eigenvalues --   -0.45715  -0.42598  -0.41608  -0.40924  -0.39404
 Alpha  occ. eigenvalues --   -0.38939  -0.35030  -0.26296  -0.26106  -0.23935
 Alpha virt. eigenvalues --    0.00094   0.02359   0.06288   0.06431   0.08440
 Alpha virt. eigenvalues --    0.08483   0.09592   0.09759   0.11476   0.11730
 Alpha virt. eigenvalues --    0.13782   0.15454   0.17192   0.17813   0.18043

 Mulliken charges:
               1
     1  N    0.113357
     2  C   -0.157052
     3  O   -0.454802
     4  C   -0.461382
     5  H    0.300378
     6  H    0.106694
     7  H    0.106694
     8  H    0.108989
     9  H    0.108990
    10  C   -0.257001
    11  H    0.119510
    12  H    0.136371
    13  H    0.115187
    14  C   -0.257001
    15  H    0.136371
    16  H    0.119510
    17  H    0.115187
 Sum of Mulliken charges =  -0.00000

 Dipole moment (field-independent basis, Debye):
    X=              1.6090    Y=              0.0000    Z=             -2.5427  Tot=              3.0090
 Quadrupole moment (field-independent basis, Debye-Ang):
   XX=            -39.3384   YY=            -36.6427   ZZ=            -43.3886
   XY=              0.0000   XZ=             -1.6789   YZ=              0.0000

 1\1\GINC-BHC0026\SP\RB3LYP\def2TZVP\C4H11N1O1\DHANAWAY\10-Jun-2022\0\\
 # sp B3LYP/Def2TZVP NoSymm\\ts_initalOptXYZ_aligned_AlignedSp\\0,1\N,0
 ,0.546626,0.,0.066636\C,0,-1.240726,0.000009,-0.944094\O,0,0.10901,-0.
 000005,1.334724\C,0,-2.11982,-0.000001,0.151407\H,0,-1.117306,-0.00000
 6,1.072844\H,0,-2.673371,-0.910962,0.356876\H,0,-2.673374,0.910955,0.3
 5689\H,0,-1.061794,0.908861,-1.505931\H,0,-1.061792,-0.90883,-1.50595\
 C,0,1.277275,1.225415,-0.260596\H,0,2.20738,1.280165,0.312036\H,0,0.65
 181,2.076223,-0.001687\H,0,1.503426,1.244676,-1.328148\C,0,1.277267,-1

 Normal termination of Gaussian 16 at Fri Jun 10 10:53:37 2022.
