 Gaussian 16, Revision A.03,
 Gaussian 16:  ES64L-G16RevA.03 25-Dec-2016

 --------------------------------------------------------------------
 # Opt=(TS, CalcFC, noeigentest) B3LYP/Def2TZVP freq=noraman pop=none
 --------------------------------------------------------------------

 ------------
 ts_initalOpt
 ------------
 Symbolic Z-matrix:
 Charge =  0 Multiplicity = 1

 SCF Done:  E(RB3LYP) =  -573.600468276     A.U. after   15 cycles
 Optimization completed.
    -- Stationary point found.
 Normal termination of Gaussian 16 at Sat Jun 11 22:56:02 2022.

 --------------------------------------------------------------------
 #N Geom=AllCheck Guess=TCheck SCRF=Check GenChk RB3LYP/def2TZVP Freq
 --------------------------------------------------------------------

 Structure from the checkpoint file:  "checkpoint.chk"
 ------------
 ts_initalOpt
 ------------
 Charge =  0 Multiplicity = 1

                         Standard orientation:
 ---------------------------------------------------------------------
 Center     Atomic      Atomic             Coordinates (Angstroms)
 Number     Number       Type             X           Y           Z
 ---------------------------------------------------------------------
      1          6           0       -1.080256   -0.256222    0.699459
      2          6           0       -0.031193    1.608388    1.151031
      3          6           0        1.260323    1.307257   -0.695841
      4          6           0        1.260323    1.307257    0.695841
      5          1           0        2.083760    0.997095   -1.322348
      6          1           0        2.083760    0.997095    1.322348
      7          6           0       -0.751641    2.260981   -0.000000
      8          1           0       -1.835463    2.174682   -0.000000
      9          1           0       -0.498847    3.330134   -0.000000
     10          1           0       -0.281589    1.778199   -2.188392
     11          1           0       -0.281589    1.778199    2.188392
     12          8           0        0.154454   -1.683084   -2.230963
     13          8           0        0.154454   -1.683084    2.230963
     14          6           0       -0.114512   -1.281375   -1.140209
     15          6           0       -0.114512   -1.281375    1.140209
     16          1           0       -1.913033   -0.008679   -1.337815
     17          6           0       -0.031193    1.608388   -1.151031
     18          6           0       -1.080256   -0.256222   -0.699459
     19          1           0       -1.913033   -0.008679    1.337815
     20          8           0        0.522783   -1.776397    0.000000
 ---------------------------------------------------------------------

 SCF Done:  E(RB3LYP) =  -573.600468276     A.U. after    1 cycles

 Isotropic polarizability for W=    0.000000      110.82 Bohr**3.
 End of Minotr F.D. properties file   721 does not exist.

 ******    1 imaginary frequencies (negative Signs) ******

                      1                      2                      3
                     A'                     A"                     A"
 Frequencies --   -463.3566                80.9132               129.1227
 Red. masses --      9.3313                 5.4830                 4.6392
 Frc consts  --      1.1804                 0.0211                 0.0456
 IR Inten    --      0.6528                 1.0491                 0.0092

                      4                      5                      6
                     A'                     A'                     A"
 Frequencies --    129.9300               177.5820               188.4497
 Red. masses --      7.2701                14.6149                 6.6733
 Frc consts  --      0.0723                 0.2715                 0.1396
 IR Inten    --      4.8000                 1.9438                 1.9783

                      7                      8                      9
                     A'                     A'                     A"
 Frequencies --    292.8544               401.5529               431.1797
 Red. masses --      3.7732                 8.8163                 5.8294
 Frc consts  --      0.1907                 0.8376                 0.6385
 IR Inten    --      1.9658                 5.3044                 1.5025

                     10                     11                     12
                     A'                     A"                     A"
 Frequencies --    467.1654               568.9765               614.2655
 Red. masses --      2.1745                 2.9177                 4.9517
 Frc consts  --      0.2796                 0.5565                 1.1008
 IR Inten    --      2.0987                 0.5272                15.6452

                     13                     14                     15
                     A'                     A"                     A'
 Frequencies --    624.4923               719.2285               743.3171
 Red. masses --     10.3856                 7.3879                 6.5060
 Frc consts  --      2.3864                 2.2517                 2.1179
 IR Inten    --      1.8590                30.3763                17.6002

                     16                     17                     18
                     A'                     A"                     A'
 Frequencies --    767.7012               778.0806               798.3142
 Red. masses --      2.0352                 6.9288                 1.2420
 Frc consts  --      0.7067                 2.4715                 0.4663
 IR Inten    --      7.3093                 1.6041                22.7930

                     19                     20                     21
                     A"                     A'                     A"
 Frequencies --    812.4179               849.5219               860.9690
 Red. masses --      2.7439                 1.5803                 1.5971
 Frc consts  --      1.0670                 0.6720                 0.6975
 IR Inten    --      2.0911                47.9982                15.8481

                     22                     23                     24
                     A'                     A"                     A'
 Frequencies --    890.0458               894.5911               913.4930
 Red. masses --      6.4974                 5.6520                 1.7868
 Frc consts  --      3.0326                 2.6650                 0.8785
 IR Inten    --      1.7556               171.6067                 6.4307

                     25                     26                     27
                     A"                     A'                     A"
 Frequencies --    936.7171               976.9084               977.3491
 Red. masses --      1.4069                 1.7424                 1.6160
 Frc consts  --      0.7273                 0.9797                 0.9095
 IR Inten    --      0.2432                 0.5820                 0.9844

                     28                     29                     30
                     A"                     A'                     A'
 Frequencies --    992.2179               995.3164              1067.5609
 Red. masses --      1.3391                 1.3683                 1.3458
 Frc consts  --      0.7767                 0.7986                 0.9037
 IR Inten    --      3.3602                11.7729                 0.9845

                     31                     32                     33
                     A"                     A"                     A'
 Frequencies --   1075.8044              1091.4406              1105.7533
 Red. masses --      2.1191                 1.2785                 1.2055
 Frc consts  --      1.4450                 0.8973                 0.8685
 IR Inten    --     30.3819                 3.8330                 6.0685

                     34                     35                     36
                     A'                     A"                     A'
 Frequencies --   1125.2929              1136.6853              1251.3929
 Red. masses --      2.2280                 1.1646                 8.0417
 Frc consts  --      1.6623                 0.8866                 7.4197
 IR Inten    --      4.0460                 0.2712               225.6730

                     37                     38                     39
                     A"                     A"                     A"
 Frequencies --   1285.0966              1315.8484              1334.2317
 Red. masses --      1.7995                 1.5110                 1.7960
 Frc consts  --      1.7509                 1.5414                 1.8838
 IR Inten    --      4.2916                 0.8648                 0.0334

                     40                     41                     42
                     A'                     A'                     A'
 Frequencies --   1370.5812              1434.9461              1468.1865
 Red. masses --      3.1483                 3.5321                 1.1498
 Frc consts  --      3.4845                 4.2850                 1.4603
 IR Inten    --     13.6803                 3.4968                14.0396

                     43                     44                     45
                     A'                     A"                     A"
 Frequencies --   1491.0033              1492.3907              1825.0609
 Red. masses --      2.9364                 3.1163                12.7327
 Frc consts  --      3.8461                 4.0894                24.9877
 IR Inten    --      1.3277                14.3905               686.1774

                     46                     47                     48
                     A'                     A'                     A'
 Frequencies --   1886.3879              3006.7480              3120.2040
 Red. masses --     12.5751                 1.0713                 1.0906
 Frc consts  --     26.3647                 5.7061                 6.2560
 IR Inten    --    275.1839                 8.0671                14.1568

                     49                     50                     51
                     A"                     A'                     A"
 Frequencies --   3205.5500              3210.6719              3219.9710
 Red. masses --      1.0879                 1.0924                 1.0949
 Frc consts  --      6.5866                 6.6349                 6.6887
 IR Inten    --      1.1359                 1.1951                 2.1236

                     52                     53                     54
                     A"                     A'                     A'
 Frequencies --   3226.3522              3232.2002              3239.2768
 Red. masses --      1.0895                 1.1035                 1.0979
 Frc consts  --      6.6822                 6.7922                 6.7877
 IR Inten    --      0.6317                 0.2366                 0.2464

 - Thermochemistry -
 -------------------
 Temperature   298.150 Kelvin.  Pressure   1.00000 Atm.
 Atom     1 has atomic number  6 and mass  12.00000

 Molecular mass:   164.04734 amu.
 Principal axes and moments of inertia in atomic units:
                           1         2         3
     Eigenvalues --  1287.788051672.646422258.71088
           X            0.00965   0.00000   0.99995
           Y            0.99995   0.00000  -0.00965
           Z           -0.00000   1.00000  -0.00000
 This molecule is an asymmetric top.
 Rotational symmetry number  1.
 Warning -- assumption of classical behavior for rotation
           may cause significant error
 Rotational temperatures (Kelvin)      0.06726     0.05178     0.03835
 Rotational constants (GHZ):           1.40143     1.07897     0.79901
    1 imaginary frequencies ignored.
 Zero-point vibrational energy     396151.2 (Joules/Mol)
                                   94.68241 (Kcal/Mol)
 Warning -- explicit consideration of  11 degrees of freedom as
           vibrations may cause significant error
 Vibrational temperatures:    116.42   185.78   186.94   255.50   271.14
          (Kelvin)            421.35   577.75   620.37   672.15   818.63
                              883.79   898.51  1034.81  1069.47  1104.55
                             1119.48  1148.60  1168.89  1222.27  1238.74
                             1280.58  1287.12  1314.31  1347.73  1405.55
                             1406.19  1427.58  1432.04  1535.98  1547.84
                             1570.34  1590.93  1619.05  1635.44  1800.48
                             1848.97  1893.21  1919.66  1971.96  2064.57
                             2112.39  2145.22  2147.22  2625.86  2714.09
                             4326.04  4489.28  4612.07  4619.44  4632.82
                             4642.00  4650.42  4660.60

 Zero-point correction=                           0.150886 (Hartree/Particle)
 Thermal correction to Energy=                    0.160020
 Thermal correction to Enthalpy=                  0.160964
 Thermal correction to Gibbs Free Energy=         0.116238
 Sum of electronic and zero-point Energies=           -573.449582
 Sum of electronic and thermal Energies=              -573.440449
 Sum of electronic and thermal Enthalpies=            -573.439504
 Sum of electronic and thermal Free Energies=         -573.484230

                     E (Thermal)             CV                S
                      KCal/Mol        Cal/Mol-Kelvin    Cal/Mol-Kelvin
 Total                  100.414             36.106             94.134
 Electronic               0.000              0.000              0.000
 Translational            0.889              2.981             41.193
 Rotational               0.889              2.981             29.966
 Vibrational             98.636             30.145             22.975
 Vibration     1          0.600              1.962              3.869
 Vibration     2          0.612              1.924              2.959
 Vibration     3          0.612              1.923              2.947
 Vibration     4          0.628              1.870              2.354
 Vibration     5          0.633              1.856              2.243
 Vibration     6          0.688              1.687              1.457
 Vibration     7          0.767              1.467              0.957
 Vibration     8          0.792              1.402              0.855
 Vibration     9          0.824              1.323              0.746
 Vibration    10          0.925              1.098              0.506
 Vibration    11          0.974              1.002              0.426

 Optimization completed.
    -- Stationary point found.
 Normal termination of Gaussian 16 at Sat Jun 11 23:11:55 2022.
