 Gaussian 16, Revision A.03,
 Gaussian 16:  ES64L-G16RevA.03 25-Dec-2016

 ----------------------------------------------------------------------
 # Opt=(TS, CalcFC, noeigentest, Z-matrix, MaxStep=10) geom=allcheckpoi
 nt guess=read Field=read NoSymm B3LYP/Def2TZVP freq=noraman pop=none
 ----------------------------------------------------------------------

 Structure from the checkpoint file:  "checkpoint.chk"
 -----------------
 ts_zmat_initalOpt
 -----------------
 Charge =  0 Multiplicity = 1

 SCF Done:  E(RB3LYP) =  -312.081160963     A.U. after   10 cycles
 SCF Done:  E(RB3LYP) =  -312.081170147     A.U. after   10 cycles
 SCF Done:  E(RB3LYP) =  -312.081171114     A.U. after    8 cycles
 Optimization completed.
    -- Stationary point found.
 Normal termination of Gaussian 16 at Fri Jun 10 22:58:50 2022.

 --------------------------------------------------------------------
 #N Geom=AllCheck Guess=TCheck SCRF=Check GenChk RB3LYP/def2TZVP Freq
 --------------------------------------------------------------------

 Structure from the checkpoint file:  "checkpoint.chk"
 -----------------
 ts_zmat_initalOpt
 -----------------
 Charge =  0 Multiplicity = 1

                          Input orientation:
 ---------------------------------------------------------------------
 Center     Atomic      Atomic             Coordinates (Angstroms)
 Number     Number       Type             X           Y           Z
 ---------------------------------------------------------------------
      1          1           0        0.000000    0.000000    0.000000
      2          6           0        0.000000    0.000000    1.090621
      3          1           0        1.044268    0.000000    1.406566
      4          6           0       -0.805396    1.174367    1.674689
      5          6           0       -0.761444   -1.211081    1.618380
      6          1           0       -1.429536   -1.700533    0.918480
      7          6           0       -1.948016    0.457123    2.382366
      8          6           0       -0.392904   -1.937764    2.747023
      9          1           0       -1.182238    1.852525    0.907821
     10          1           0       -0.220910    1.780623    2.367404
     11          1           0       -0.984509   -2.824269    2.963733
     12          6           0        0.440650   -1.477783    3.740863
     13          6           0       -2.009356    0.261210    3.759041
     14          1           0       -2.875162    0.363307    1.827988
     15          1           0        1.173471   -0.709082    3.545299
     16          1           0        0.619235   -2.077299    4.623497
     17          6           0       -0.932403    0.347995    4.612916
     18          1           0       -2.909607   -0.216630    4.138602
     19          1           0       -0.074651    0.958474    4.375079
     20          1           0       -1.046947    0.095259    5.658730
 ---------------------------------------------------------------------

 SCF Done:  E(RB3LYP) =  -312.081171114     A.U. after    1 cycles

 Isotropic polarizability for W=    0.000000      102.35 Bohr**3.
 End of Minotr F.D. properties file   721 does not exist.

 ******    1 imaginary frequencies (negative Signs) ******

                      1                      2                      3
                      A                      A                      A
 Frequencies --   -426.5909                61.8837               257.6329
 Red. masses --      8.1921                 2.0956                 2.4516
 Frc consts  --      0.8784                 0.0047                 0.0959
 IR Inten    --      1.7430                 0.0011                 0.8387

                      4                      5                      6
                      A                      A                      A
 Frequencies --    259.9314               283.0886               303.9072
 Red. masses --      4.6548                 3.0835                 3.2636
 Frc consts  --      0.1853                 0.1456                 0.1776
 IR Inten    --      0.0358                 0.4038                 0.2242

                      7                      8                      9
                      A                      A                      A
 Frequencies --    368.6260               422.3341               531.5175
 Red. masses --      2.3070                 2.2592                 2.2849
 Frc consts  --      0.1847                 0.2374                 0.3803
 IR Inten    --      1.9415                 1.8119                 2.3922

                     10                     11                     12
                      A                      A                      A
 Frequencies --    573.6424               658.3150               684.1926
 Red. masses --      2.0355                 2.6059                 1.3444
 Frc consts  --      0.3946                 0.6654                 0.3708
 IR Inten    --      0.6014                 4.1042                 0.1239

                     13                     14                     15
                      A                      A                      A
 Frequencies --    715.7677               761.8762               786.3368
 Red. masses --      1.3291                 1.0970                 1.3373
 Frc consts  --      0.4012                 0.3752                 0.4872
 IR Inten    --     23.5450                 7.1605                 6.4742

                     16                     17                     18
                      A                      A                      A
 Frequencies --    861.9882               901.4125               914.5066
 Red. masses --      1.4942                 1.2290                 2.1795
 Frc consts  --      0.6541                 0.5884                 1.0739
 IR Inten    --     11.9758                 1.9026                 2.4653

                     19                     20                     21
                      A                      A                      A
 Frequencies --    941.1404               953.9146               991.3860
 Red. masses --      1.5063                 1.5006                 1.5017
 Frc consts  --      0.7861                 0.8045                 0.8696
 IR Inten    --      0.0656                 9.6337                 5.7602

                     22                     23                     24
                      A                      A                      A
 Frequencies --    993.4722              1010.5117              1019.4121
 Red. masses --      1.5509                 1.6826                 1.2735
 Frc consts  --      0.9019                 1.0123                 0.7797
 IR Inten    --      0.8849                 0.7713                21.2693

                     25                     26                     27
                      A                      A                      A
 Frequencies --   1040.3087              1087.8850              1147.7761
 Red. masses --      1.4341                 1.9378                 1.2895
 Frc consts  --      0.9145                 1.3512                 1.0009
 IR Inten    --      0.2550                 5.3869                 0.3173

                     28                     29                     30
                      A                      A                      A
 Frequencies --   1181.3347              1221.6072              1264.2251
 Red. masses --      1.5952                 1.5142                 1.1419
 Frc consts  --      1.3116                 1.3313                 1.0753
 IR Inten    --      0.5558                 0.4187                 0.1194

                     31                     32                     33
                      A                      A                      A
 Frequencies --   1288.8197              1299.1015              1300.3910
 Red. masses --      1.4753                 1.3832                 1.3669
 Frc consts  --      1.4438                 1.3754                 1.3619
 IR Inten    --      0.1658                 1.0244                 1.2861

                     34                     35                     36
                      A                      A                      A
 Frequencies --   1327.1192              1429.6223              1430.2826
 Red. masses --      1.4022                 1.3425                 1.3316
 Frc consts  --      1.4550                 1.6166                 1.6050
 IR Inten    --      3.0449                 1.4687                 2.4643

                     37                     38                     39
                      A                      A                      A
 Frequencies --   1488.1117              1495.1046              1505.9664
 Red. masses --      1.1822                 2.2967                 1.5184
 Frc consts  --      1.5425                 3.0248                 2.0289
 IR Inten    --      3.0270                 3.6493                 0.4621

                     40                     41                     42
                      A                      A                      A
 Frequencies --   1510.8234              1560.0607              1611.3745
 Red. masses --      1.1272                 1.8981                 3.7554
 Frc consts  --      1.5160                 2.7218                 5.7451
 IR Inten    --     15.8516                 2.3656                 5.5615

                     43                     44                     45
                      A                      A                      A
 Frequencies --   3050.1000              3057.5864              3079.3868
 Red. masses --      1.0587                 1.0604                 1.1052
 Frc consts  --      5.8028                 5.8411                 6.1748
 IR Inten    --     25.7159                44.0999                 0.1319

                     46                     47                     48
                      A                      A                      A
 Frequencies --   3099.3866              3108.4498              3111.6732
 Red. masses --      1.1049                 1.0846                 1.0859
 Frc consts  --      6.2534                 6.1745                 6.1947
 IR Inten    --     17.1782                11.2145                36.7076

                     49                     50                     51
                      A                      A                      A
 Frequencies --   3150.6228              3156.3467              3156.8305
 Red. masses --      1.0844                 1.0815                 1.0658
 Frc consts  --      6.3418                 6.3481                 6.2581
 IR Inten    --      3.9100                51.5499                 7.7986

                     52                     53                     54
                      A                      A                      A
 Frequencies --   3162.9052              3234.3955              3246.0405
 Red. masses --      1.0661                 1.1161                 1.1131
 Frc consts  --      6.2835                 6.8793                 6.9103
 IR Inten    --      7.1021                 1.4316                17.7056

 - Thermochemistry -
 -------------------
 Temperature   298.150 Kelvin.  Pressure   1.00000 Atm.
 Atom     1 has atomic number  1 and mass   1.00783

 Molecular mass:   108.09390 amu.
 Principal axes and moments of inertia in atomic units:
                           1         2         3
     Eigenvalues --   723.69941 783.101421141.66915
           X            0.00759  -0.55513   0.83173
           Y           -0.30499   0.79084   0.53062
           Z            0.95232   0.25770   0.16331
 This molecule is an asymmetric top.
 Rotational symmetry number  1.
 Warning -- assumption of classical behavior for rotation
           may cause significant error
 Rotational temperatures (Kelvin)      0.11968     0.11060     0.07587
 Rotational constants (GHZ):           2.49377     2.30461     1.58079
    1 imaginary frequencies ignored.
 Zero-point vibrational energy     460923.8 (Joules/Mol)
                                  110.16342 (Kcal/Mol)
 Warning -- explicit consideration of   9 degrees of freedom as
           vibrations may cause significant error
 Vibrational temperatures:     89.04   370.68   373.98   407.30   437.25
          (Kelvin)            530.37   607.64   764.74   825.34   947.17
                              984.40  1029.83  1096.17  1131.36  1240.21
                             1296.93  1315.77  1354.09  1372.47  1426.38
                             1429.38  1453.90  1466.71  1496.77  1565.22
                             1651.39  1699.68  1757.62  1818.94  1854.32
                             1869.12  1870.97  1909.43  2056.91  2057.86
                             2141.06  2151.12  2166.75  2173.74  2244.58
                             2318.41  4388.41  4399.18  4430.55  4459.33
                             4472.37  4477.00  4533.04  4541.28  4541.97
                             4550.72  4653.57  4670.33

 Zero-point correction=                           0.175557 (Hartree/Particle)
 Thermal correction to Energy=                    0.183151
 Thermal correction to Enthalpy=                  0.184095
 Thermal correction to Gibbs Free Energy=         0.143906
 Sum of electronic and zero-point Energies=           -311.905615
 Sum of electronic and thermal Energies=              -311.898020
 Sum of electronic and thermal Enthalpies=            -311.897076
 Sum of electronic and thermal Free Energies=         -311.937266

                     E (Thermal)             CV                S
                      KCal/Mol        Cal/Mol-Kelvin    Cal/Mol-Kelvin
 Total                  114.929             30.521             84.587
 Electronic               0.000              0.000              0.000
 Translational            0.889              2.981             39.950
 Rotational               0.889              2.981             27.961
 Vibrational            113.152             24.560             16.676
 Vibration     1          0.597              1.973              4.396
 Vibration     2          0.667              1.750              1.678
 Vibration     3          0.668              1.746              1.662
 Vibration     4          0.682              1.705              1.515
 Vibration     5          0.695              1.666              1.395
 Vibration     6          0.741              1.537              1.086
 Vibration     7          0.785              1.422              0.884
 Vibration     8          0.886              1.180              0.584
 Vibration     9          0.930              1.088              0.497

 Optimization completed.
    -- Stationary point found.
 Normal termination of Gaussian 16 at Fri Jun 10 23:10:23 2022.
