 Gaussian 16, Revision A.03,
 Gaussian 16:  ES64L-G16RevA.03 25-Dec-2016

 ----------------------------------------------------------------------
 # Opt=(Z-matrix, MaxStep=10) B3LYP/Def2TZVP geom=allcheckpoint guess=r
 ead Field=read NoSymm
 ----------------------------------------------------------------------

 Structure from the checkpoint file:  "checkpoint.chk"
 ------------------
 int_zmat_initalOpt
 ------------------
 Charge =  0 Multiplicity = 1

 SCF Done:  E(RB3LYP) =  -269.424839378     A.U. after   10 cycles
 SCF Done:  E(RB3LYP) =  -269.424848818     A.U. after    8 cycles
 SCF Done:  E(RB3LYP) =  -269.424853897     A.U. after    9 cycles
 SCF Done:  E(RB3LYP) =  -269.424856303     A.U. after    8 cycles
 SCF Done:  E(RB3LYP) =  -269.424857307     A.U. after    8 cycles
 Optimization completed.
    -- Stationary point found.

                         Z-Matrix orientation:
 ---------------------------------------------------------------------
 Center     Atomic      Atomic             Coordinates (Angstroms)
 Number     Number       Type             X           Y           Z
 ---------------------------------------------------------------------
      1          6           0        0.000000    0.000000    0.000000
      2          6           0        0.000000    0.000000    1.335385
      3          6           0        1.268664    0.000000   -0.713800
      4          1           0       -0.925828    0.071321   -0.557384
      5          1           0       -0.908447    0.073047    1.918411
      6          1           0        1.314443   -0.097355   -1.789231
      7          6           0        2.383943    0.276199   -0.020892
      8          6           0        1.308295   -0.122196    2.061593
      9          1           0        3.351759    0.458941   -0.472703
     10          8           0        2.408361    0.458337    1.312858
     11          1           0        1.302021    0.402713    3.014485
     12          1           0        1.558681   -1.175996    2.254753
 ---------------------------------------------------------------------

 Alpha  occ. eigenvalues --  -19.15976 -10.23580 -10.22468 -10.17547 -10.17227
 Alpha  occ. eigenvalues --  -10.16881  -1.06927  -0.81257  -0.77378  -0.66436
 Alpha  occ. eigenvalues --   -0.62625  -0.53401  -0.50577  -0.48635  -0.46114
 Alpha  occ. eigenvalues --   -0.43743  -0.40576  -0.37851  -0.35920  -0.32899
 Alpha  occ. eigenvalues --   -0.30149  -0.20903
 Alpha virt. eigenvalues --   -0.03255   0.03749   0.05612   0.07036   0.07919
 Alpha virt. eigenvalues --    0.09247   0.10218   0.11622   0.13933   0.16573
 Alpha virt. eigenvalues --    0.17428   0.19733   0.20681   0.22053   0.23559

 Mulliken charges:
               1
     1  C   -0.104409
     2  C   -0.168960
     3  C   -0.152360
     4  H    0.109946
     5  H    0.148546
     6  H    0.070384
     7  C    0.026778
     8  C    0.024061
     9  H    0.086601
    10  O   -0.263119
    11  H    0.144280
    12  H    0.078251
 Sum of Mulliken charges =  -0.00000

 Dipole moment (field-independent basis, Debye):
    X=             -1.1553    Y=             -0.1526    Z=              1.2320  Tot=              1.6958
 Quadrupole moment (field-independent basis, Debye-Ang):
   XX=            -37.3388   YY=            -38.6478   ZZ=            -30.3297
   XY=             -0.6240   XZ=             -1.2920   YZ=             -0.7409

 Normal termination of Gaussian 16 at Fri Mar 18 14:45:19 2022.
