 Gaussian 16, Revision A.03,
 Gaussian 16:  ES64L-G16RevA.03 25-Dec-2016

 ----------------------------------------------------------------------
 # Opt=(TS, CalcFC, noeigentest, Z-matrix, MaxStep=10) Field=read NoSym
 m B3LYP/Def2TZVP freq=noraman pop=none
 ----------------------------------------------------------------------

 -----------------
 ts_zmat_initalOpt
 -----------------
 Symbolic Z-matrix:
 Charge =  0 Multiplicity = 1

 SCF Done:  E(RB3LYP) =  -439.138901603     A.U. after   15 cycles
 SCF Done:  E(RB3LYP) =  -439.138929358     A.U. after   12 cycles
 Optimization completed.
    -- Stationary point found.

 1\1\GINC-BHC0030\FTS\RB3LYP\def2TZVP\C8H7N1O1\DHANAWAY\10-Jun-2022\1\\
 # Opt=(TS, CalcFC, noeigentest, Z-matrix, MaxStep=10) Field=read NoSym
 m B3LYP/Def2TZVP freq=noraman pop=none\\ts_zmat_initalOpt\\0,1\C\C,1,R
 2\C,1,R3,2,A3\N,1,R4,2,A4,3,D4,0\C,3,R5,1,A5,2,D5,0\H,2,R6,1,A6,3,D6,0
 \H,3,R7,1,A7,5,D7,0\C,2,R8,1,A8,6,D8,0\C,4,R9,1,A9,2,D9,0\H,4,R10,1,A1
 0,9,D10,0\C,5,R11,3,A11,1,D11,0\H,5,R12,3,A12,11,D12,0\H,8,R13,2,A13,1
 ,D13,0\H,9,R14,4,A14,1,D14,0\C,11,R15,5,A15,3,D15,0\H,11,R16,5,A16,15,
 D16,0\O,15,R17,11,A17,5,D17,0\\R2=1.41469751\R3=1.41772992\R4=1.359779

 Normal termination of Gaussian 16 at Fri Jun 10 11:34:55 2022.

 --------------------------------------------------------------------
 #N Geom=AllCheck Guess=TCheck SCRF=Check GenChk RB3LYP/def2TZVP Freq
 --------------------------------------------------------------------

 Structure from the checkpoint file:  "checkpoint.chk"
 -----------------
 ts_zmat_initalOpt
 -----------------
 Charge =  0 Multiplicity = 1

                          Input orientation:
 ---------------------------------------------------------------------
 Center     Atomic      Atomic             Coordinates (Angstroms)
 Number     Number       Type             X           Y           Z
 ---------------------------------------------------------------------
      1          6           0        0.000000    0.000000    0.000000
      2          6           0        0.000000    0.000000    1.414698
      3          6           0        1.156986    0.000000   -0.819355
      4          7           0       -1.285161    0.188427   -0.402315
      5          6           0        2.300394    0.552993   -0.315096
      6          1           0        0.684993   -0.635745    1.961572
      7          1           0        1.105954   -0.299422   -1.857302
      8          6           0       -1.368662    0.200280    1.826760
      9          6           0       -2.118352    0.321869    0.701354
     10          1           0       -1.563104    0.355981   -1.354964
     11          6           0        2.477908    1.163267    0.954405
     12          1           0        3.156754    0.613635   -0.976868
     13          1           0       -1.736153    0.228771    2.838591
     14          1           0       -3.174148    0.489670    0.571842
     15          6           0        1.559802    1.293947    1.965338
     16          1           0        3.358653    1.780354    1.104953
     17          8           0        1.377524    1.687519    3.064727
 ---------------------------------------------------------------------

 SCF Done:  E(RB3LYP) =  -439.138929358     A.U. after    1 cycles

 Isotropic polarizability for W=    0.000000      107.83 Bohr**3.
 End of Minotr F.D. properties file   721 does not exist.

 ******    1 imaginary frequencies (negative Signs) ******

                      1                      2                      3
                      A                      A                      A
 Frequencies --   -421.0963               112.7720               136.6526
 Red. masses --      6.7695                 6.0423                 4.6250
 Frc consts  --      0.7072                 0.0453                 0.0509
 IR Inten    --    162.5230                 1.0923                 1.7200

                      4                      5                      6
                      A                      A                      A
 Frequencies --    270.2672               288.2641               336.5430
 Red. masses --      4.9026                 3.3575                 7.5968
 Frc consts  --      0.2110                 0.1644                 0.5069
 IR Inten    --     19.1215                 3.3654                 3.2705

                      7                      8                      9
                      A                      A                      A
 Frequencies --    459.8386               508.6689               560.0136
 Red. masses --      4.6786                 3.6081                 1.4625
 Frc consts  --      0.5829                 0.5500                 0.2702
 IR Inten    --      6.6146                 6.2471                43.3979

                     10                     11                     12
                      A                      A                      A
 Frequencies --    564.5241               610.9304               625.3181
 Red. masses --      2.5097                 3.0829                 3.3837
 Frc consts  --      0.4712                 0.6779                 0.7796
 IR Inten    --     11.7110                 8.3774                 3.9150

                     13                     14                     15
                      A                      A                      A
 Frequencies --    678.5540               708.4414               740.8894
 Red. masses --      1.7168                 1.7617                 1.6166
 Frc consts  --      0.4657                 0.5209                 0.5228
 IR Inten    --     35.1430                91.3253                30.9910

                     16                     17                     18
                      A                      A                      A
 Frequencies --    761.4051               807.7973               848.3816
 Red. masses --      1.8916                 2.1816                 4.4998
 Frc consts  --      0.6461                 0.8388                 1.9082
 IR Inten    --      2.4884                60.3933                28.8397

                     19                     20                     21
                      A                      A                      A
 Frequencies --    866.9097               895.1922               968.7733
 Red. masses --      1.3244                 5.4731                 1.3362
 Frc consts  --      0.5864                 2.5841                 0.7388
 IR Inten    --      1.7778                 7.4536                 1.8854

                     22                     23                     24
                      A                      A                      A
 Frequencies --    989.1603              1000.0423              1042.8585
 Red. masses --      2.3644                 2.0790                 1.3774
 Frc consts  --      1.3631                 1.2250                 0.8826
 IR Inten    --      4.8782                 6.8589                 7.0835

                     25                     26                     27
                      A                      A                      A
 Frequencies --   1093.1395              1126.3409              1144.2006
 Red. masses --      2.0284                 1.6344                 1.4195
 Frc consts  --      1.4281                 1.2216                 1.0949
 IR Inten    --     12.0667                 3.7753                 6.4995

                     28                     29                     30
                      A                      A                      A
 Frequencies --   1203.0732              1247.3600              1281.2319
 Red. masses --      1.1306                 1.9357                 1.7322
 Frc consts  --      0.9641                 1.7745                 1.6753
 IR Inten    --     18.7338                 1.2421                 2.8644

                     31                     32                     33
                      A                      A                      A
 Frequencies --   1387.2358              1406.3695              1435.1944
 Red. masses --      1.8753                 2.5737                 2.9903
 Frc consts  --      2.1263                 2.9992                 3.6289
 IR Inten    --     17.3817                10.3764                51.0728

                     34                     35                     36
                      A                      A                      A
 Frequencies --   1461.0369              1543.7597              1576.7070
 Red. masses --      2.2487                 4.9818                 4.8192
 Frc consts  --      2.8281                 6.9951                 7.0587
 IR Inten    --     20.3113                13.8422               160.4321

                     37                     38                     39
                      A                      A                      A
 Frequencies --   1601.8785              1936.8458              3139.5646
 Red. masses --      3.6795                12.6948                 1.0842
 Frc consts  --      5.5628                28.0586                 6.2968
 IR Inten    --     20.2787               782.3409                 7.6735

                     40                     41                     42
                      A                      A                      A
 Frequencies --   3168.8325              3170.9984              3194.9159
 Red. masses --      1.0874                 1.0899                 1.0927
 Frc consts  --      6.4334                 6.4570                 6.5717
 IR Inten    --      4.9032                 3.2986                 3.6683

                     43                     44                     45
                      A                      A                      A
 Frequencies --   3247.3006              3266.5053              3633.2424
 Red. masses --      1.0895                 1.1044                 1.0800
 Frc consts  --      6.7688                 6.9431                 8.3993
 IR Inten    --      0.9252                 1.9302                82.0557

 - Thermochemistry -
 -------------------
 Temperature   298.150 Kelvin.  Pressure   1.00000 Atm.
 Atom     1 has atomic number  6 and mass  12.00000

 Molecular mass:   133.05276 amu.
 Principal axes and moments of inertia in atomic units:
                           1         2         3
     Eigenvalues --   836.504711321.473952055.98644
           X            0.92658  -0.32446  -0.19020
           Y            0.27229   0.22988   0.93435
           Z            0.25943   0.91754  -0.30135
 This molecule is an asymmetric top.
 Rotational symmetry number  1.
 Warning -- assumption of classical behavior for rotation
           may cause significant error
 Rotational temperatures (Kelvin)      0.10354     0.06554     0.04213
 Rotational constants (GHZ):           2.15748     1.36570     0.87780
    1 imaginary frequencies ignored.
 Zero-point vibrational energy     341222.4 (Joules/Mol)
                                   81.55411 (Kcal/Mol)
 Warning -- explicit consideration of  10 degrees of freedom as
           vibrations may cause significant error
 Vibrational temperatures:    162.25   196.61   388.85   414.75   484.21
          (Kelvin)            661.61   731.86   805.73   812.22   878.99
                              899.69   976.29  1019.29  1065.97  1095.49
                             1162.24  1220.63  1247.29  1287.98  1393.85
                             1423.18  1438.84  1500.44  1572.78  1620.55
                             1646.25  1730.95  1794.67  1843.41  1995.92
                             2023.45  2064.92  2102.11  2221.13  2268.53
                             2304.75  2786.69  4517.13  4559.24  4562.36
                             4596.77  4672.14  4699.77  5227.43

 Zero-point correction=                           0.129965 (Hartree/Particle)
 Thermal correction to Energy=                    0.137557
 Thermal correction to Enthalpy=                  0.138502
 Thermal correction to Gibbs Free Energy=         0.097645
 Sum of electronic and zero-point Energies=           -439.008965
 Sum of electronic and thermal Energies=              -439.001372
 Sum of electronic and thermal Enthalpies=            -439.000428
 Sum of electronic and thermal Free Energies=         -439.041284

                     E (Thermal)             CV                S
                      KCal/Mol        Cal/Mol-Kelvin    Cal/Mol-Kelvin
 Total                   86.319             30.465             85.989
 Electronic               0.000              0.000              0.000
 Translational            0.889              2.981             40.569
 Rotational               0.889              2.981             29.209
 Vibrational             84.541             24.503             16.210
 Vibration     1          0.607              1.939              3.221
 Vibration     2          0.614              1.917              2.850
 Vibration     3          0.674              1.728              1.594
 Vibration     4          0.685              1.696              1.484
 Vibration     5          0.717              1.603              1.228
 Vibration     6          0.818              1.339              0.767
 Vibration     7          0.864              1.231              0.637
 Vibration     8          0.916              1.118              0.524
 Vibration     9          0.920              1.108              0.515
 Vibration    10          0.970              1.009              0.431

 Optimization completed.
    -- Stationary point found.
 Normal termination of Gaussian 16 at Fri Jun 10 11:46:17 2022.
