 Gaussian 16, Revision A.03,
 Gaussian 16:  ES64L-G16RevA.03 25-Dec-2016

 ----------------------------------------------------------------------
 # Opt=(TS, CalcFC, noeigentest, Z-matrix, MaxStep=10) geom=allcheckpoi
 nt guess=read Field=read NoSymm B3LYP/Def2TZVP freq=noraman pop=none
 ----------------------------------------------------------------------

 Structure from the checkpoint file:  "checkpoint.chk"
 -----------------
 ts_zmat_initalOpt
 -----------------
 Charge =  0 Multiplicity = 1

 SCF Done:  E(RB3LYP) =  -195.282406772     A.U. after   10 cycles
 SCF Done:  E(RB3LYP) =  -195.282416650     A.U. after   10 cycles
 Optimization completed.
    -- Stationary point found.
 Normal termination of Gaussian 16 at Fri Jun 10 12:02:44 2022.

 --------------------------------------------------------------------
 #N Geom=AllCheck Guess=TCheck SCRF=Check GenChk RB3LYP/def2TZVP Freq
 --------------------------------------------------------------------

 Structure from the checkpoint file:  "checkpoint.chk"
 -----------------
 ts_zmat_initalOpt
 -----------------
 Charge =  0 Multiplicity = 1

                          Input orientation:
 ---------------------------------------------------------------------
 Center     Atomic      Atomic             Coordinates (Angstroms)
 Number     Number       Type             X           Y           Z
 ---------------------------------------------------------------------
      1          6           0        0.000000    0.000000    0.000000
      2          6           0        0.000000    0.000000    1.385753
      3          6           0        1.250324    0.000000   -0.842966
      4          1           0       -0.950337    0.021003   -0.524732
      5          6           0        2.047208   -1.069020   -0.262115
      6          1           0        1.742791    0.974743   -0.854981
      7          1           0        0.952603   -0.231750   -1.871374
      8          6           0        0.940700   -0.528255    2.238847
      9          1           0       -0.849069    0.522650    1.833596
     10          1           0        2.981701   -0.892232    0.248678
     11          1           0        1.697781   -2.087897   -0.347074
     12          1           0        1.465647   -1.436401    1.995684
     13          1           0        1.039231   -0.156961    3.255378
 ---------------------------------------------------------------------

 SCF Done:  E(RB3LYP) =  -195.282416650     A.U. after    1 cycles

 Isotropic polarizability for W=    0.000000       74.91 Bohr**3.
 End of Minotr F.D. properties file   721 does not exist.

 ******    1 imaginary frequencies (negative Signs) ******

                      1                      2                      3
                      A                      A                      A
 Frequencies --   -418.8059               217.2930               262.2471
 Red. masses --      1.9469                 2.2622                 2.2427
 Frc consts  --      0.2012                 0.0629                 0.0909
 IR Inten    --      0.4236                 0.3326                 1.0309

                      4                      5                      6
                      A                      A                      A
 Frequencies --    368.6523               540.6380               587.4154
 Red. masses --      2.2085                 1.2665                 1.3181
 Frc consts  --      0.1768                 0.2181                 0.2680
 IR Inten    --      7.2897                 9.1388                 2.9375

                      7                      8                      9
                      A                      A                      A
 Frequencies --    646.8261               687.1784               735.7796
 Red. masses --      1.5103                 1.3280                 1.2957
 Frc consts  --      0.3723                 0.3695                 0.4133
 IR Inten    --     16.5737                62.6523                32.7748

                     10                     11                     12
                      A                      A                      A
 Frequencies --    773.0742               837.8445               893.6999
 Red. masses --      1.3662                 1.5823                 1.4993
 Frc consts  --      0.4811                 0.6544                 0.7055
 IR Inten    --      7.2620                12.1455                 5.7719

                     13                     14                     15
                      A                      A                      A
 Frequencies --    932.4778              1030.7728              1061.8618
 Red. masses --      1.7808                 1.5583                 1.6787
 Frc consts  --      0.9123                 0.9755                 1.1152
 IR Inten    --      5.1323                 0.4963                17.0448

                     16                     17                     18
                      A                      A                      A
 Frequencies --   1133.7131              1155.8133              1221.2415
 Red. masses --      2.1310                 2.0450                 1.2226
 Frc consts  --      1.6138                 1.6096                 1.0743
 IR Inten    --     22.4851                 0.6343                 8.1812

                     19                     20                     21
                      A                      A                      A
 Frequencies --   1266.6667              1305.5618              1399.7803
 Red. masses --      1.2496                 1.3015                 1.3344
 Frc consts  --      1.1813                 1.3070                 1.5404
 IR Inten    --     21.1058                 5.8993                 1.5926

                     22                     23                     24
                      A                      A                      A
 Frequencies --   1421.8032              1480.6505              1496.9605
 Red. masses --      1.1132                 1.2782                 1.4348
 Frc consts  --      1.3259                 1.6511                 1.8944
 IR Inten    --     14.0817                 7.9940                 1.7862

                     25                     26                     27
                      A                      A                      A
 Frequencies --   1586.2455              3019.9539              3059.5027
 Red. masses --      4.0902                 1.0586                 1.0824
 Frc consts  --      6.0636                 5.6881                 5.9694
 IR Inten    --     28.3887                 5.8700                16.8411

                     28                     29                     30
                      A                      A                      A
 Frequencies --   3066.2166              3112.5332              3151.4647
 Red. masses --      1.1017                 1.0672                 1.0885
 Frc consts  --      6.1028                 6.0916                 6.3694
 IR Inten    --     14.4025                41.9374                 1.8613

                     31                     32                     33
                      A                      A                      A
 Frequencies --   3161.7160              3250.5308              3263.0218
 Red. masses --      1.0514                 1.1006                 1.1186
 Frc consts  --      6.1928                 6.8518                 7.0174
 IR Inten    --      6.7777                10.9605                 4.8471

 - Thermochemistry -
 -------------------
 Temperature   298.150 Kelvin.  Pressure   1.00000 Atm.
 Atom     1 has atomic number  6 and mass  12.00000

 Molecular mass:    68.06260 amu.
 Principal axes and moments of inertia in atomic units:
                           1         2         3
     Eigenvalues --   211.77127 404.70690 568.04961
           X           -0.36509   0.79865   0.47840
           Y            0.06326  -0.49140   0.86864
           Z            0.92882   0.34739   0.12888
 This molecule is an asymmetric top.
 Rotational symmetry number  1.
 Rotational temperatures (Kelvin)      0.40900     0.21402     0.15248
 Rotational constants (GHZ):           8.52213     4.45938     3.17708
    1 imaginary frequencies ignored.
 Zero-point vibrational energy     287876.2 (Joules/Mol)
                                   68.80406 (Kcal/Mol)
 Warning -- explicit consideration of   5 degrees of freedom as
           vibrations may cause significant error
 Vibrational temperatures:    312.64   377.32   530.41   777.86   845.16
          (Kelvin)            930.64   988.70  1058.62  1112.28  1205.47
                             1285.83  1341.63  1483.05  1527.78  1631.16
                             1662.96  1757.09  1822.45  1878.41  2013.97
                             2045.66  2130.33  2153.79  2282.25  4345.04
                             4401.94  4411.60  4478.24  4534.25  4549.00
                             4676.79  4694.76

 Zero-point correction=                           0.109646 (Hartree/Particle)
 Thermal correction to Energy=                    0.114968
 Thermal correction to Enthalpy=                  0.115912
 Thermal correction to Gibbs Free Energy=         0.081810
 Sum of electronic and zero-point Energies=           -195.172770
 Sum of electronic and thermal Energies=              -195.167449
 Sum of electronic and thermal Enthalpies=            -195.166505
 Sum of electronic and thermal Free Energies=         -195.200606

                     E (Thermal)             CV                S
                      KCal/Mol        Cal/Mol-Kelvin    Cal/Mol-Kelvin
 Total                   72.143             20.142             71.772
 Electronic               0.000              0.000              0.000
 Translational            0.889              2.981             38.571
 Rotational               0.889              2.981             25.391
 Vibrational             70.366             14.180              7.811
 Vibration     1          0.646              1.815              1.982
 Vibration     2          0.670              1.742              1.647
 Vibration     3          0.741              1.537              1.085
 Vibration     4          0.896              1.160              0.564
 Vibration     5          0.945              1.059              0.472

 Optimization completed.
    -- Stationary point found.
 Normal termination of Gaussian 16 at Fri Jun 10 12:04:57 2022.
