 Gaussian 16, Revision A.03,
 Gaussian 16:  ES64L-G16RevA.03 25-Dec-2016

 --------------------------
 # sp B3LYP/Def2TZVP NoSymm
 --------------------------

 ----------------------------
 int_initalOpt_zmat_AlignedSp
 ----------------------------
 Symbolic Z-matrix:
 Charge =  0 Multiplicity = 1

                          Input orientation:
 ---------------------------------------------------------------------
 Center     Atomic      Atomic             Coordinates (Angstroms)
 Number     Number       Type             X           Y           Z
 ---------------------------------------------------------------------
      1          6           0        0.000000    0.000000    0.000000
      2          6           0        0.000000    0.000000    1.482558
      3          6           0        1.307212    0.000000   -0.767112
      4          6           0        0.397357   -1.196454   -0.814723
      5          1           0       -0.769609    0.629987   -0.434908
      6          1           0        2.217423   -0.087171   -0.188821
      7          1           0        1.385433    0.629114   -1.643936
      8          1           0        0.716856   -2.088578   -0.294012
      9          1           0       -0.149007   -1.389356   -1.728261
     10          6           0        0.039902   -1.064012    2.277029
     11          1           0       -0.029952    0.987341    1.938164
     12          1           0        0.054329   -2.074313    1.886333
     13          1           0        0.056538   -0.959056    3.354207
 ---------------------------------------------------------------------

 SCF Done:  E(RB3LYP) =  -195.367313830     A.U. after   13 cycles

 Alpha  occ. eigenvalues --  -10.18343 -10.17640 -10.17501 -10.17344 -10.16187
 Alpha  occ. eigenvalues --   -0.86643  -0.76243  -0.63241  -0.60399  -0.54113
 Alpha  occ. eigenvalues --   -0.50618  -0.47318  -0.44430  -0.39079  -0.37052
 Alpha  occ. eigenvalues --   -0.35293  -0.32157  -0.30019  -0.25365
 Alpha virt. eigenvalues --    0.00268   0.04790   0.05826   0.07399   0.07533
 Alpha virt. eigenvalues --    0.10481   0.11526   0.12336   0.12954   0.15722
 Alpha virt. eigenvalues --    0.16347   0.17098   0.18595   0.19913   0.22286

 Mulliken charges:
               1
     1  C   -0.018711
     2  C   -0.126107
     3  C   -0.207547
     4  C   -0.215725
     5  H    0.094049
     6  H    0.108679
     7  H    0.103109
     8  H    0.103630
     9  H    0.104705
    10  C   -0.256198
    11  H    0.098656
    12  H    0.101640
    13  H    0.109820
 Sum of Mulliken charges =  -0.00000

 Dipole moment (field-independent basis, Debye):
    X=              0.0311    Y=              0.2090    Z=             -0.3871  Tot=              0.4410
 Quadrupole moment (field-independent basis, Debye-Ang):
   XX=            -33.8048   YY=            -31.1850   ZZ=            -31.3059
   XY=             -0.4443   XZ=              0.7541   YZ=             -0.1844

 Normal termination of Gaussian 16 at Fri Jun 10 10:58:23 2022.
