 Gaussian 16, Revision A.03,
 Gaussian 16:  ES64L-G16RevA.03 25-Dec-2016

 ----------------------------------------------------------------------
 # Opt=(Z-matrix, MaxStep=10) B3LYP/Def2TZVP geom=allcheckpoint guess=r
 ead Field=read NoSymm freq=noraman pop=none
 ----------------------------------------------------------------------

 Structure from the checkpoint file:  "checkpoint.chk"
 ------------------
 int_zmat_initalOpt
 ------------------
 Charge =  0 Multiplicity = 1

 SCF Done:  E(RB3LYP) =  -195.368894038     A.U. after   10 cycles
 SCF Done:  E(RB3LYP) =  -195.368897710     A.U. after    7 cycles
 SCF Done:  E(RB3LYP) =  -195.368899069     A.U. after    7 cycles
 SCF Done:  E(RB3LYP) =  -195.368900463     A.U. after    7 cycles
 SCF Done:  E(RB3LYP) =  -195.368901544     A.U. after    7 cycles
 SCF Done:  E(RB3LYP) =  -195.368902075     A.U. after    7 cycles
 SCF Done:  E(RB3LYP) =  -195.368902343     A.U. after    7 cycles
 Optimization completed.
    -- Stationary point found.
 Normal termination of Gaussian 16 at Fri Jun 10 23:14:06 2022.

 --------------------------------------------------------------------
 #N Geom=AllCheck Guess=TCheck SCRF=Check GenChk RB3LYP/def2TZVP Freq
 --------------------------------------------------------------------

 Structure from the checkpoint file:  "checkpoint.chk"
 ------------------
 int_zmat_initalOpt
 ------------------
 Charge =  0 Multiplicity = 1

                          Input orientation:
 ---------------------------------------------------------------------
 Center     Atomic      Atomic             Coordinates (Angstroms)
 Number     Number       Type             X           Y           Z
 ---------------------------------------------------------------------
      1          1           0        0.000000    0.000000    0.000000
      2          6           0        0.000000    0.000000    1.083247
      3          1           0        0.968235    0.000000    1.568776
      4          6           0       -1.135717    0.010276    1.774875
      5          1           0       -2.075185    0.030022    1.225365
      6          6           0       -1.281866   -0.015324    3.247790
      7          1           0       -2.014207    0.691250    3.624022
      8          6           0       -0.147222   -0.336526    4.177257
      9          6           0       -1.252755   -1.335775    3.997778
     10          1           0       -0.094389    0.204824    5.111770
     11          1           0        0.817319   -0.574740    3.750567
     12          1           0       -1.958782   -1.479127    4.804344
     13          1           0       -1.035057   -2.224643    3.420574
 ---------------------------------------------------------------------

 SCF Done:  E(RB3LYP) =  -195.368902343     A.U. after    1 cycles

 Isotropic polarizability for W=    0.000000       58.41 Bohr**3.
 End of Minotr F.D. properties file   721 does not exist.

                      1                      2                      3
                      A                      A                      A
 Frequencies --     87.5363               268.5007               303.0457
 Red. masses --      2.0201                 2.6406                 1.8146
 Frc consts  --      0.0091                 0.1122                 0.0982
 IR Inten    --      0.5928                 0.6033                 0.8084

                      4                      5                      6
                      A                      A                      A
 Frequencies --    535.9647               663.9696               759.7332
 Red. masses --      2.0781                 1.6242                 1.7294
 Frc consts  --      0.3517                 0.4219                 0.5881
 IR Inten    --      0.3901                14.6265                 2.1279

                      7                      8                      9
                      A                      A                      A
 Frequencies --    814.4883               837.3374               907.5268
 Red. masses --      1.2554                 1.4445                 2.3776
 Frc consts  --      0.4907                 0.5967                 1.1537
 IR Inten    --      0.4082                 8.1542                10.1437

                     10                     11                     12
                      A                      A                      A
 Frequencies --    926.6789               947.4489              1024.8786
 Red. masses --      1.4188                 2.5096                 1.1063
 Frc consts  --      0.7179                 1.3273                 0.6846
 IR Inten    --     37.6300                14.2635                17.7238

                     13                     14                     15
                      A                      A                      A
 Frequencies --   1053.9834              1088.5662              1095.1964
 Red. masses --      1.1922                 1.3186                 1.5675
 Frc consts  --      0.7803                 0.9206                 1.1077
 IR Inten    --      6.4508                 4.8316                 8.9644

                     16                     17                     18
                      A                      A                      A
 Frequencies --   1120.8923              1133.2138              1202.2560
 Red. masses --      1.4897                 1.2191                 1.3805
 Frc consts  --      1.1028                 0.9224                 1.1756
 IR Inten    --      1.2933                 0.6425                 2.4154

                     19                     20                     21
                      A                      A                      A
 Frequencies --   1227.8935              1333.8763              1405.7852
 Red. masses --      1.8955                 1.2682                 1.5177
 Frc consts  --      1.6838                 1.3294                 1.7672
 IR Inten    --      2.8060                 0.2670                 0.0160

                     22                     23                     24
                      A                      A                      A
 Frequencies --   1456.4056              1474.3015              1509.2569
 Red. masses --      1.2888                 1.0947                 1.3263
 Frc consts  --      1.6106                 1.4019                 1.7800
 IR Inten    --      3.5532                 4.4776                 2.9601

                     25                     26                     27
                      A                      A                      A
 Frequencies --   1697.4259              3106.1949              3131.3273
 Red. masses --      4.4663                 1.0835                 1.0739
 Frc consts  --      7.5820                 6.1596                 6.2037
 IR Inten    --     34.5266                23.3404                14.5731

                     28                     29                     30
                      A                      A                      A
 Frequencies --   3133.5530              3137.3802              3143.2843
 Red. masses --      1.0592                 1.0657                 1.0590
 Frc consts  --      6.1278                 6.1805                 6.1646
 IR Inten    --     16.8267                11.1083                 5.2298

                     31                     32                     33
                      A                      A                      A
 Frequencies --   3210.6021              3212.7388              3226.0403
 Red. masses --      1.1176                 1.1168                 1.1163
 Frc consts  --      6.7877                 6.7916                 6.8450
 IR Inten    --      8.5319                15.1463                10.0786

 - Thermochemistry -
 -------------------
 Temperature   298.150 Kelvin.  Pressure   1.00000 Atm.
 Atom     1 has atomic number  1 and mass   1.00783

 Molecular mass:    68.06260 amu.
 Principal axes and moments of inertia in atomic units:
                           1         2         3
     Eigenvalues --   155.13142 492.97523 543.39710
           X           -0.15786   0.97195  -0.17431
           Y           -0.26811   0.12771   0.95489
           Z            0.95037   0.19747   0.24043
 This molecule is an asymmetric top.
 Rotational symmetry number  1.
 Rotational temperatures (Kelvin)      0.55833     0.17570     0.15939
 Rotational constants (GHZ):          11.63363     3.66092     3.32122
 Zero-point vibrational energy     300126.8 (Joules/Mol)
                                   71.73203 (Kcal/Mol)
 Warning -- explicit consideration of   4 degrees of freedom as
           vibrations may cause significant error
 Vibrational temperatures:    125.95   386.31   436.02   771.13   955.30
          (Kelvin)           1093.09  1171.87  1204.74  1305.73  1333.28
                             1363.17  1474.57  1516.45  1566.20  1575.74
                             1612.71  1630.44  1729.78  1766.66  1919.15
                             2022.61  2095.44  2121.19  2171.48  2442.22
                             4469.12  4505.28  4508.48  4513.99  4522.48
                             4619.34  4622.41  4641.55

 Zero-point correction=                           0.114312 (Hartree/Particle)
 Thermal correction to Energy=                    0.119714
 Thermal correction to Enthalpy=                  0.120658
 Thermal correction to Gibbs Free Energy=         0.085970
 Sum of electronic and zero-point Energies=           -195.254590
 Sum of electronic and thermal Energies=              -195.249188
 Sum of electronic and thermal Enthalpies=            -195.248244
 Sum of electronic and thermal Free Energies=         -195.282932

                     E (Thermal)             CV                S
                      KCal/Mol        Cal/Mol-Kelvin    Cal/Mol-Kelvin
 Total                   75.122             19.387             73.008
 Electronic               0.000              0.000              0.000
 Translational            0.889              2.981             38.571
 Rotational               0.889              2.981             25.233
 Vibrational             73.344             13.426              9.203
 Vibration     1          0.601              1.958              3.714
 Vibration     2          0.673              1.731              1.606
 Vibration     3          0.694              1.668              1.400
 Vibration     4          0.891              1.170              0.574

                       ! Non-Optimized Parameters !
 Normal termination of Gaussian 16 at Fri Jun 10 23:16:21 2022.
