 Gaussian 16, Revision A.03,
 Gaussian 16:  ES64L-G16RevA.03 25-Dec-2016

 --------------------------
 # sp B3LYP/Def2TZVP NoSymm
 --------------------------

 ----------------------------
 int_initalOpt_zmat_AlignedSp
 ----------------------------
 Symbolic Z-matrix:
 Charge =  0 Multiplicity = 1

                          Input orientation:
 ---------------------------------------------------------------------
 Center     Atomic      Atomic             Coordinates (Angstroms)
 Number     Number       Type             X           Y           Z
 ---------------------------------------------------------------------
      1          6           0        0.000000    0.000000    0.000000
      2          6           0        0.000000    0.000000    1.547003
      3          6           0        1.544356    0.000000    0.029628
      4          1           0       -0.395855    0.935701   -0.395133
      5          1           0       -0.488512   -0.830738   -0.509079
      6          6           0        1.469336    0.494119    1.535137
      7          6           0        2.351125    0.752344   -0.973397
      8          1           0       -0.071610   -1.008470    1.955628
      9          1           0       -0.739387    0.623091    2.046725
     10          1           0        1.905365   -1.033716    0.054300
     11          6           0        1.883761    1.389944   -2.040231
     12          6           0        1.711194    1.958352    1.730734
     13          1           0        3.425762    0.749509   -0.800709
     14          1           0        2.146516   -0.054587    2.196180
     15          6           0        0.851363    2.870948    2.167236
     16          1           0        2.547197    1.899253   -2.727529
     17          1           0        0.825888    1.424982   -2.270854
     18          1           0        2.720926    2.282903    1.490462
     19          1           0       -0.171249    2.630986    2.430009
     20          1           0        1.147742    3.905829    2.282078
 ---------------------------------------------------------------------

 SCF Done:  E(RB3LYP) =  -312.116804126     A.U. after   13 cycles

 Alpha  occ. eigenvalues --  -10.18245 -10.18171 -10.17374 -10.17350 -10.16886
 Alpha  occ. eigenvalues --  -10.16703 -10.16162 -10.16074  -0.86027  -0.77607
 Alpha  occ. eigenvalues --   -0.75962  -0.67169  -0.66042  -0.59491  -0.55949
 Alpha  occ. eigenvalues --   -0.51312  -0.49607  -0.48263  -0.45706  -0.44642
 Alpha  occ. eigenvalues --   -0.40960  -0.39706  -0.36995  -0.36555  -0.34887
 Alpha  occ. eigenvalues --   -0.32688  -0.32523  -0.30629  -0.26335  -0.25433
 Alpha virt. eigenvalues --   -0.00015   0.00790   0.03671   0.04979   0.06218
 Alpha virt. eigenvalues --    0.06789   0.08623   0.09388   0.09762   0.11098
 Alpha virt. eigenvalues --    0.12636   0.13060   0.13914   0.14354   0.14583

 Mulliken charges:
               1
     1  C   -0.177108
     2  C   -0.192438
     3  C    0.030212
     4  H    0.086637
     5  H    0.092173
     6  C    0.041305
     7  C   -0.164207
     8  H    0.086215
     9  H    0.088447
    10  H    0.068671
    11  C   -0.247488
    12  C   -0.147333
    13  H    0.099775
    14  H    0.081053
    15  C   -0.258626
    16  H    0.109095
    17  H    0.104591
    18  H    0.091057
    19  H    0.098731
    20  H    0.109239
 Sum of Mulliken charges =  -0.00000

 Dipole moment (field-independent basis, Debye):
    X=              0.1031    Y=             -0.5134    Z=              0.1544  Tot=              0.5459
 Quadrupole moment (field-independent basis, Debye-Ang):
   XX=            -48.6353   YY=            -51.2426   ZZ=            -53.2447
   XY=             -0.5382   XZ=              0.1813   YZ=             -1.4032

 Normal termination of Gaussian 16 at Fri Jun 10 02:33:25 2022.
