 Gaussian 16, Revision A.03,
 Gaussian 16:  ES64L-G16RevA.03 25-Dec-2016

 --------------------------------------------------------------------
 # Opt=(TS, CalcFC, noeigentest) B3LYP/Def2TZVP freq=noraman pop=none
 --------------------------------------------------------------------

 ------------
 ts_initalOpt
 ------------
 Symbolic Z-matrix:
 Charge =  0 Multiplicity = 1

 SCF Done:  E(RB3LYP) =  -289.018861712     A.U. after   13 cycles
 SCF Done:  E(RB3LYP) =  -289.018861788     A.U. after    7 cycles
 Optimization completed.
    -- Stationary point found.
 Normal termination of Gaussian 16 at Fri Jun 10 10:35:21 2022.

 --------------------------------------------------------------------
 #N Geom=AllCheck Guess=TCheck SCRF=Check GenChk RB3LYP/def2TZVP Freq
 --------------------------------------------------------------------

 Structure from the checkpoint file:  "checkpoint.chk"
 ------------
 ts_initalOpt
 ------------
 Charge =  0 Multiplicity = 1

                         Standard orientation:
 ---------------------------------------------------------------------
 Center     Atomic      Atomic             Coordinates (Angstroms)
 Number     Number       Type             X           Y           Z
 ---------------------------------------------------------------------
      1          6           0       -2.119820   -0.000001    0.151407
      2          6           0       -1.240726    0.000009   -0.944094
      3          1           0       -1.117306   -0.000006    1.072844
      4          1           0       -2.673371   -0.910962    0.356876
      5          1           0       -2.673374    0.910955    0.356890
      6          7           0        0.546626   -0.000000    0.066636
      7          1           0       -1.061794    0.908861   -1.505931
      8          1           0       -1.061792   -0.908830   -1.505950
      9          8           0        0.109010   -0.000005    1.334724
     10          6           0        1.277275    1.225415   -0.260596
     11          1           0        2.207380    1.280165    0.312036
     12          1           0        0.651810    2.076223   -0.001687
     13          1           0        1.503426    1.244676   -1.328148
     14          6           0        1.277267   -1.225417   -0.260607
     15          1           0        0.651797   -2.076222   -0.001703
     16          1           0        2.207372   -1.280177    0.312024
     17          1           0        1.503416   -1.244673   -1.328160
 ---------------------------------------------------------------------

 SCF Done:  E(RB3LYP) =  -289.018861788     A.U. after    1 cycles

 Isotropic polarizability for W=    0.000000       71.12 Bohr**3.
 End of Minotr F.D. properties file   721 does not exist.

 ******    1 imaginary frequencies (negative Signs) ******

                      1                      2                      3
                      A                      A                      A
 Frequencies --  -1123.1237               117.1023               224.8569
 Red. masses --      1.2787                 2.2573                 1.1580
 Frc consts  --      0.9504                 0.0182                 0.0345
 IR Inten    --    283.3516                 0.0398                 0.1806

                      4                      5                      6
                      A                      A                      A
 Frequencies --    236.2269               247.3599               276.5812
 Red. masses --      1.9125                 1.1040                 2.6549
 Frc consts  --      0.0629                 0.0398                 0.1197
 IR Inten    --      0.0284                 1.8881                20.1823

                      7                      8                      9
                      A                      A                      A
 Frequencies --    380.1943               426.2299               495.0890
 Red. masses --      2.7755                 2.9545                 3.2900
 Frc consts  --      0.2364                 0.3162                 0.4751
 IR Inten    --     31.4081                25.2538                 8.9713

                     10                     11                     12
                      A                      A                      A
 Frequencies --    536.1180               568.3053               632.1426
 Red. masses --      1.1223                 3.2015                 5.4404
 Frc consts  --      0.1901                 0.6092                 1.2809
 IR Inten    --      2.0653                 6.8052                 7.7431

                     13                     14                     15
                      A                      A                      A
 Frequencies --    818.3502               863.6625               925.7826
 Red. masses --      1.0868                 4.3065                 1.1111
 Frc consts  --      0.4288                 1.8926                 0.5611
 IR Inten    --      2.0229                29.7196                 2.6062

                     16                     17                     18
                      A                      A                      A
 Frequencies --    994.2080              1014.6994              1073.9653
 Red. masses --      1.3008                 1.5550                 1.1703
 Frc consts  --      0.7575                 0.9433                 0.7953
 IR Inten    --     18.0290                 2.1298                 5.3719

                     19                     20                     21
                      A                      A                      A
 Frequencies --   1084.4145              1102.5281              1198.9654
 Red. masses --      2.0709                 1.2369                 1.6056
 Frc consts  --      1.4348                 0.8859                 1.3599
 IR Inten    --     45.8043                 0.3175                 1.3335

                     22                     23                     24
                      A                      A                      A
 Frequencies --   1234.9905              1261.5887              1263.8475
 Red. masses --      1.4613                 3.0256                 2.1232
 Frc consts  --      1.3132                 2.8372                 1.9981
 IR Inten    --      1.6602                 1.4246                63.2291

                     25                     26                     27
                      A                      A                      A
 Frequencies --   1313.5303              1316.0899              1428.5997
 Red. masses --      2.2830                 1.0519                 1.1731
 Frc consts  --      2.3208                 1.0735                 1.4107
 IR Inten    --    111.8782                11.6745                 0.7138

                     28                     29                     30
                      A                      A                      A
 Frequencies --   1453.2121              1470.2782              1473.1168
 Red. masses --      1.1919                 1.1047                 1.0483
 Frc consts  --      1.4830                 1.4070                 1.3403
 IR Inten    --      3.6098                 2.1583                 1.9665

                     31                     32                     33
                      A                      A                      A
 Frequencies --   1487.7028              1492.6965              1507.9546
 Red. masses --      1.0469                 1.0475                 1.0623
 Frc consts  --      1.3652                 1.3751                 1.4233
 IR Inten    --      9.3399                 4.7931                 4.8828

                     34                     35                     36
                      A                      A                      A
 Frequencies --   1543.1313              1694.7735              3021.3949
 Red. masses --      1.4809                 1.0625                 1.0366
 Frc consts  --      2.0777                 1.7980                 5.5753
 IR Inten    --     29.2738                26.5500                20.9173

                     37                     38                     39
                      A                      A                      A
 Frequencies --   3027.3766              3088.0330              3093.2113
 Red. masses --      1.0380                 1.1018                 1.0994
 Frc consts  --      5.6049                 6.1901                 6.1977
 IR Inten    --     71.7639                 0.1225                38.1980

                     40                     41                     42
                      A                      A                      A
 Frequencies --   3102.2413              3126.2120              3140.4304
 Red. masses --      1.0530                 1.0592                 1.1007
 Frc consts  --      5.9707                 6.0992                 6.3961
 IR Inten    --     14.9350                17.6391                 6.8917

                     43                     44                     45
                      A                      A                      A
 Frequencies --   3142.5404              3169.4301              3205.3605
 Red. masses --      1.1020                 1.1132                 1.1160
 Frc consts  --      6.4122                 6.5886                 6.7560
 IR Inten    --     12.0257                 3.5357                21.4897

 - Thermochemistry -
 -------------------
 Temperature   298.150 Kelvin.  Pressure   1.00000 Atm.
 Atom     1 has atomic number  6 and mass  12.00000

 Molecular mass:    89.08406 amu.
 Principal axes and moments of inertia in atomic units:
                           1         2         3
     Eigenvalues --   375.70548 713.76594 727.24898
           X            0.99967   0.00000  -0.02552
           Y           -0.00000   1.00000   0.00001
           Z            0.02552  -0.00001   0.99967
 This molecule is an asymmetric top.
 Rotational symmetry number  1.
 Rotational temperatures (Kelvin)      0.23054     0.12135     0.11910
 Rotational constants (GHZ):           4.80361     2.52848     2.48160
    1 imaginary frequencies ignored.
 Zero-point vibrational energy     384447.0 (Joules/Mol)
                                   91.88505 (Kcal/Mol)
 Warning -- explicit consideration of  10 degrees of freedom as
           vibrations may cause significant error
 Vibrational temperatures:    168.48   323.52   339.88   355.90   397.94
          (Kelvin)            547.01   613.25   712.32   771.35   817.66
                              909.51  1177.42  1242.62  1331.99  1430.44
                             1459.93  1545.20  1560.23  1586.29  1725.04
                             1776.88  1815.14  1818.39  1889.88  1893.56
                             2055.44  2090.85  2115.40  2119.49  2140.47
                             2147.66  2169.61  2220.22  2438.40  4347.11
                             4355.72  4442.99  4450.44  4463.43  4497.92
                             4518.38  4521.41  4560.10  4611.80

 Zero-point correction=                           0.146428 (Hartree/Particle)
 Thermal correction to Energy=                    0.153753
 Thermal correction to Enthalpy=                  0.154697
 Thermal correction to Gibbs Free Energy=         0.115943
 Sum of electronic and zero-point Energies=           -288.872434
 Sum of electronic and thermal Energies=              -288.865109
 Sum of electronic and thermal Enthalpies=            -288.864165
 Sum of electronic and thermal Free Energies=         -288.902919

                     E (Thermal)             CV                S
                      KCal/Mol        Cal/Mol-Kelvin    Cal/Mol-Kelvin
 Total                   96.481             27.333             81.566
 Electronic               0.000              0.000              0.000
 Translational            0.889              2.981             39.373
 Rotational               0.889              2.981             26.769
 Vibrational             94.704             21.372             15.423
 Vibration     1          0.608              1.935              3.148
 Vibration     2          0.650              1.803              1.920
 Vibration     3          0.655              1.785              1.831
 Vibration     4          0.661              1.767              1.749
 Vibration     5          0.678              1.717              1.555
 Vibration     6          0.750              1.512              1.038
 Vibration     7          0.788              1.413              0.871
 Vibration     8          0.851              1.261              0.671
 Vibration     9          0.891              1.170              0.574
 Vibration    10          0.924              1.100              0.508

 Optimization completed.
    -- Stationary point found.
 Normal termination of Gaussian 16 at Fri Jun 10 10:39:34 2022.
