 Gaussian 16, Revision A.03,
 Gaussian 16:  ES64L-G16RevA.03 25-Dec-2016

 ----------------------------------------------------------------------
 # Opt=(Z-matrix, MaxStep=10) B3LYP/Def2TZVP geom=allcheckpoint guess=r
 ead Field=read NoSymm freq=noraman pop=none
 ----------------------------------------------------------------------

 Structure from the checkpoint file:  "checkpoint.chk"
 ------------------
 int_zmat_initalOpt
 ------------------
 Charge =  0 Multiplicity = 1

 SCF Done:  E(RB3LYP) =  -387.400744731     A.U. after   10 cycles
 SCF Done:  E(RB3LYP) =  -387.400767978     A.U. after    9 cycles
 SCF Done:  E(RB3LYP) =  -387.400786947     A.U. after    8 cycles
 SCF Done:  E(RB3LYP) =  -387.400804335     A.U. after   10 cycles
 SCF Done:  E(RB3LYP) =  -387.400807804     A.U. after    7 cycles
 SCF Done:  E(RB3LYP) =  -387.400802428     A.U. after   10 cycles
 SCF Done:  E(RB3LYP) =  -387.400810279     A.U. after    8 cycles
 SCF Done:  E(RB3LYP) =  -387.400810801     A.U. after    7 cycles
 SCF Done:  E(RB3LYP) =  -387.400811388     A.U. after    8 cycles
 Optimization completed.
    -- Stationary point found.

 1\1\GINC-BHC0009\FOpt\RB3LYP\def2TZVP\C8H12O1\DHANAWAY\10-Jun-2022\1\\
 # Opt=(Z-matrix, MaxStep=10) B3LYP/Def2TZVP geom=allcheckpoint guess=r
 ead Field=read NoSymm freq=noraman pop=none\\int_zmat_initalOpt\\0,1\C
 \C,1,R2\C,1,R3,2,A3\C,1,R4,2,A4,3,D4,0\H,2,R5,1,A5,3,D5,0\C,2,R6,1,A6,
 5,D6,0\O,3,R7,1,A7,2,D7,0\H,3,R8,1,A8,7,D8,0\H,3,R9,1,A9,7,D9,0\C,4,R1
 0,1,A10,2,D10,0\C,4,R11,1,A11,10,D11,0\H,4,R12,1,A12,10,D12,0\H,6,R13,
 2,A13,1,D13,0\H,6,R14,2,A14,13,D14,0\H,6,R15,2,A15,13,D15,0\H,10,R16,4
 ,A16,1,D16,0\H,10,R17,4,A17,16,D17,0\C,11,R18,4,A18,1,D18,0\H,11,R19,4

 Normal termination of Gaussian 16 at Fri Jun 10 13:52:50 2022.

 --------------------------------------------------------------------
 #N Geom=AllCheck Guess=TCheck SCRF=Check GenChk RB3LYP/def2TZVP Freq
 --------------------------------------------------------------------

 Structure from the checkpoint file:  "checkpoint.chk"
 ------------------
 int_zmat_initalOpt
 ------------------
 Charge =  0 Multiplicity = 1

                          Input orientation:
 ---------------------------------------------------------------------
 Center     Atomic      Atomic             Coordinates (Angstroms)
 Number     Number       Type             X           Y           Z
 ---------------------------------------------------------------------
      1          6           0        0.000000    0.000000    0.000000
      2          6           0        0.000000    0.000000    1.328601
      3          6           0        1.207256    0.000000   -0.905684
      4          6           0       -1.201882    0.073513   -0.929348
      5          1           0       -0.954582    0.026033    1.843885
      6          6           0        1.200007   -0.090479    2.218432
      7          8           0        0.755419    0.469378   -2.190881
      8          1           0        1.630642   -1.000698   -1.043510
      9          1           0        2.001677    0.656907   -0.535081
     10          6           0       -0.611298    0.878367   -2.086483
     11          6           0       -2.484745    0.561490   -0.330735
     12          1           0       -1.383281   -0.946195   -1.301296
     13          1           0        2.140593   -0.014474    1.670669
     14          1           0        1.205017   -1.043120    2.755668
     15          1           0        1.176956    0.690313    2.983258
     16          1           0       -1.093948    0.680406   -3.045560
     17          1           0       -0.669037    1.955337   -1.874788
     18          6           0       -3.216578    1.586556   -0.750741
     19          1           0       -2.849642   -0.022608    0.508248
     20          1           0       -2.929170    2.201130   -1.596633
     21          1           0       -4.147877    1.840886   -0.261655
 ---------------------------------------------------------------------

 SCF Done:  E(RB3LYP) =  -387.400811388     A.U. after    1 cycles

 Isotropic polarizability for W=    0.000000       97.65 Bohr**3.
 End of Minotr F.D. properties file   721 does not exist.

                      1                      2                      3
                      A                      A                      A
 Frequencies --     63.0081                77.1168               142.1138
 Red. masses --      2.4487                 2.5173                 1.0747
 Frc consts  --      0.0057                 0.0088                 0.0128
 IR Inten    --      0.8878                 0.5901                 1.1178

                      4                      5                      6
                      A                      A                      A
 Frequencies --    154.5491               185.8910               190.1400
 Red. masses --      2.5361                 2.8366                 2.3757
 Frc consts  --      0.0357                 0.0578                 0.0506
 IR Inten    --      5.1072                 0.3259                 0.8033

                      7                      8                      9
                      A                      A                      A
 Frequencies --    246.1911               316.7266               424.4705
 Red. masses --      2.9943                 2.5830                 2.8698
 Frc consts  --      0.1069                 0.1527                 0.3046
 IR Inten    --      0.8655                 0.1031                 0.8091

                     10                     11                     12
                      A                      A                      A
 Frequencies --    484.8474               545.3893               575.4656
 Red. masses --      2.4195                 2.3828                 2.9773
 Frc consts  --      0.3351                 0.4176                 0.5809
 IR Inten    --      4.6284                 2.3982                 3.2803

                     13                     14                     15
                      A                      A                      A
 Frequencies --    648.3256               702.3369               806.9572
 Red. masses --      5.2272                 1.9486                 2.5000
 Frc consts  --      1.2945                 0.5663                 0.9592
 IR Inten    --      2.0722                 9.9252                 5.0289

                     16                     17                     18
                      A                      A                      A
 Frequencies --    863.1186               923.7659               939.3147
 Red. masses --      1.2299                 4.2028                 1.3338
 Frc consts  --      0.5398                 2.1130                 0.6934
 IR Inten    --      6.9471                40.1085                43.7195

                     19                     20                     21
                      A                      A                      A
 Frequencies --    955.6649               995.5065              1010.6014
 Red. masses --      3.4650                 1.6344                 1.7849
 Frc consts  --      1.8645                 0.9543                 1.0740
 IR Inten    --      8.6509                18.0035                 2.1982

                     22                     23                     24
                      A                      A                      A
 Frequencies --   1016.8507              1038.0693              1056.4473
 Red. masses --      1.4494                 1.5021                 1.3823
 Frc consts  --      0.8830                 0.9537                 0.9090
 IR Inten    --     15.3104                 1.1346                 6.7081

                     25                     26                     27
                      A                      A                      A
 Frequencies --   1065.9320              1074.4896              1107.3451
 Red. masses --      1.5820                 5.3909                 2.5934
 Frc consts  --      1.0591                 3.6671                 1.8736
 IR Inten    --      2.0832                80.9533                17.7703

                     28                     29                     30
                      A                      A                      A
 Frequencies --   1165.1503              1194.1097              1215.7803
 Red. masses --      1.9434                 1.7817                 1.4097
 Frc consts  --      1.5544                 1.4968                 1.2277
 IR Inten    --      4.8492                 4.2382                 4.1588

                     31                     32                     33
                      A                      A                      A
 Frequencies --   1231.4102              1287.5312              1320.0843
 Red. masses --      1.1641                 1.3268                 1.3730
 Frc consts  --      1.0401                 1.2959                 1.4096
 IR Inten    --      0.1037                 4.4685                 0.2095

                     34                     35                     36
                      A                      A                      A
 Frequencies --   1337.7595              1352.9655              1388.1660
 Red. masses --      1.2383                 1.2437                 1.4110
 Frc consts  --      1.3057                 1.3414                 1.6020
 IR Inten    --      2.4777                 0.9696                 5.4542

                     37                     38                     39
                      A                      A                      A
 Frequencies --   1401.7300              1418.4999              1462.9383
 Red. masses --      1.5467                 1.2853                 1.2084
 Frc consts  --      1.7905                 1.5237                 1.5237
 IR Inten    --      2.2540                 1.7412                 1.7355

                     40                     41                     42
                      A                      A                      A
 Frequencies --   1481.0957              1491.8671              1509.4698
 Red. masses --      1.0454                 1.0645                 1.0842
 Frc consts  --      1.3511                 1.3959                 1.4554
 IR Inten    --      5.6796                14.1621                 0.5252

                     43                     44                     45
                      A                      A                      A
 Frequencies --   1522.1045              1704.8060              1751.5004
 Red. masses --      1.0914                 4.5579                 7.5782
 Frc consts  --      1.4897                 7.8049                13.6974
 IR Inten    --      1.0058                19.8428                 2.2409

                     46                     47                     48
                      A                      A                      A
 Frequencies --   2956.6319              2971.2988              2998.2531
 Red. masses --      1.0751                 1.0751                 1.0573
 Frc consts  --      5.5371                 5.5924                 5.6000
 IR Inten    --     28.5649                56.7784                58.3809

                     49                     50                     51
                      A                      A                      A
 Frequencies --   3023.0204              3025.5194              3064.3648
 Red. masses --      1.1003                 1.0415                 1.0927
 Frc consts  --      5.9246                 5.6170                 6.0453
 IR Inten    --     25.9215                31.1376                55.9987

                     52                     53                     54
                      A                      A                      A
 Frequencies --   3070.4830              3094.3536              3132.2505
 Red. masses --      1.0993                 1.1007                 1.0603
 Frc consts  --      6.1062                 6.2095                 6.1290
 IR Inten    --      8.3840                23.4021                17.6345

                     55                     56                     57
                      A                      A                      A
 Frequencies --   3150.4437              3157.3365              3215.6784
 Red. masses --      1.0901                 1.0887                 1.1136
 Frc consts  --      6.3744                 6.3941                 6.7844
 IR Inten    --      0.9138                 6.5609                10.2437

 - Thermochemistry -
 -------------------
 Temperature   298.150 Kelvin.  Pressure   1.00000 Atm.
 Atom     1 has atomic number  6 and mass  12.00000

 Molecular mass:   124.08882 amu.
 Principal axes and moments of inertia in atomic units:
                           1         2         3
     Eigenvalues --   850.061941339.505992051.90245
           X            0.78726  -0.56853   0.23873
           Y           -0.27232   0.02679   0.96183
           Z            0.55322   0.82223   0.13373
 This molecule is an asymmetric top.
 Rotational symmetry number  1.
 Warning -- assumption of classical behavior for rotation
           may cause significant error
 Rotational temperatures (Kelvin)      0.10189     0.06466     0.04221
 Rotational constants (GHZ):           2.12307     1.34732     0.87955
 Zero-point vibrational energy     476755.2 (Joules/Mol)
                                  113.94722 (Kcal/Mol)
 Warning -- explicit consideration of  12 degrees of freedom as
           vibrations may cause significant error
 Vibrational temperatures:     90.65   110.95   204.47   222.36   267.46
          (Kelvin)            273.57   354.21   455.70   610.72   697.59
                              784.69   827.97   932.80  1010.51  1161.03
                             1241.84  1329.09  1351.46  1374.99  1432.31
                             1454.03  1463.02  1493.55  1519.99  1533.64
                             1545.95  1593.22  1676.39  1718.06  1749.24
                             1771.72  1852.47  1899.31  1924.74  1946.62
                             1997.26  2016.78  2040.90  2104.84  2130.97
                             2146.46  2171.79  2189.97  2452.84  2520.02
                             4253.93  4275.04  4313.82  4349.45  4353.05
                             4408.94  4417.74  4452.08  4506.61  4532.79
                             4542.70  4626.64

 Zero-point correction=                           0.181586 (Hartree/Particle)
 Thermal correction to Energy=                    0.191171
 Thermal correction to Enthalpy=                  0.192115
 Thermal correction to Gibbs Free Energy=         0.146537
 Sum of electronic and zero-point Energies=           -387.219225
 Sum of electronic and thermal Energies=              -387.209640
 Sum of electronic and thermal Enthalpies=            -387.208696
 Sum of electronic and thermal Free Energies=         -387.254274

                     E (Thermal)             CV                S
                      KCal/Mol        Cal/Mol-Kelvin    Cal/Mol-Kelvin
 Total                  119.962             34.840             95.928
 Electronic               0.000              0.000              0.000
 Translational            0.889              2.981             40.361
 Rotational               0.889              2.981             29.237
 Vibrational            118.184             28.879             26.330
 Vibration     1          0.597              1.972              4.361
 Vibration     2          0.599              1.964              3.963
 Vibration     3          0.616              1.911              2.775
 Vibration     4          0.620              1.898              2.615
 Vibration     5          0.632              1.859              2.268
 Vibration     6          0.633              1.853              2.226
 Vibration     7          0.661              1.769              1.758
 Vibration     8          0.704              1.642              1.327
 Vibration     9          0.786              1.417              0.877
 Vibration    10          0.841              1.284              0.697
 Vibration    11          0.901              1.150              0.554
 Vibration    12          0.932              1.084              0.494

                       ! Non-Optimized Parameters !

 1\1\GINC-BHC0009\Freq\RB3LYP\def2TZVP\C8H12O1\DHANAWAY\10-Jun-2022\1\\
 #N Geom=AllCheck Guess=TCheck SCRF=Check GenChk RB3LYP/def2TZVP Freq\\
 int_zmat_initalOpt\\0,1\C\C,1,R2\C,1,R3,2,A3\C,1,R4,2,A4,3,D4,0\H,2,R5
 ,1,A5,3,D5,0\C,2,R6,1,A6,5,D6,0\O,3,R7,1,A7,2,D7,0\H,3,R8,1,A8,7,D8,0\
 H,3,R9,1,A9,7,D9,0\C,4,R10,1,A10,2,D10,0\C,4,R11,1,A11,10,D11,0\H,4,R1
 2,1,A12,10,D12,0\H,6,R13,2,A13,1,D13,0\H,6,R14,2,A14,13,D14,0\H,6,R15,
 2,A15,13,D15,0\H,10,R16,4,A16,1,D16,0\H,10,R17,4,A17,16,D17,0\C,11,R18
 ,4,A18,1,D18,0\H,11,R19,4,A19,18,D19,0\H,18,R20,11,A20,4,D20,0\H,18,R2

 Normal termination of Gaussian 16 at Fri Jun 10 14:05:00 2022.
