 Gaussian 16, Revision A.03,
 Gaussian 16:  ES64L-G16RevA.03 25-Dec-2016

 ----------------------------------------------------------------------
 # Opt=(TS, CalcFC, noeigentest, Z-matrix, MaxStep=10) geom=allcheckpoi
 nt guess=read Field=read NoSymm B3LYP/Def2TZVP freq=noraman pop=none
 ----------------------------------------------------------------------

 Structure from the checkpoint file:  "checkpoint.chk"
 -----------------
 ts_zmat_initalOpt
 -----------------
 Charge =  0 Multiplicity = 1

 SCF Done:  E(RB3LYP) =  -669.457447471     A.U. after   12 cycles
 SCF Done:  E(RB3LYP) =  -669.457604877     A.U. after   13 cycles
 SCF Done:  E(RB3LYP) =  -669.457606140     A.U. after   10 cycles
 Optimization completed.
    -- Stationary point found.
 Normal termination of Gaussian 16 at Fri Jun 10 09:31:51 2022.

 --------------------------------------------------------------------
 #N Geom=AllCheck Guess=TCheck SCRF=Check GenChk RB3LYP/def2TZVP Freq
 --------------------------------------------------------------------

 Structure from the checkpoint file:  "checkpoint.chk"
 -----------------
 ts_zmat_initalOpt
 -----------------
 Charge =  0 Multiplicity = 1

                          Input orientation:
 ---------------------------------------------------------------------
 Center     Atomic      Atomic             Coordinates (Angstroms)
 Number     Number       Type             X           Y           Z
 ---------------------------------------------------------------------
      1          6           0        0.000000    0.000000    0.000000
      2          6           0        0.000000    0.000000    1.397578
      3          6           0        1.217174    0.000000   -0.622608
      4          1           0       -0.912304   -0.161609   -0.557382
      5          6           0        2.422199   -0.067581    0.232098
      6          1           0       -0.906577   -0.279446    1.923024
      7          6           0        1.025289    0.773319    2.163755
      8          1           0        1.295290   -0.053794   -1.700484
      9          6           0        2.535340   -1.518209    0.880312
     10          1           0        3.329914    0.093065   -0.346828
     11          6           0        2.310281    0.989754    1.345471
     12          1           0        1.232191    0.301917    3.125848
     13          1           0        0.560927    1.736148    2.411195
     14          6           0        1.285045   -2.069111    1.483640
     15          1           0        3.315157   -1.459449    1.637494
     16          1           0        2.845004   -2.195617    0.084141
     17          1           0        3.185026    0.930691    1.992618
     18          1           0        2.314321    1.982633    0.895885
     19          7           0        0.394249   -2.763141    0.713315
     20          6           0        1.204189   -2.288538    2.933684
     21          8           0        0.623467   -2.708962   -0.516740
     22          8           0        2.064818   -1.971569    3.725847
     23          8           0        0.041949   -2.876057    3.350250
     24          6           0       -0.049921   -3.062617    4.760997
     25          1           0       -1.027246   -3.513517    4.932457
     26          1           0        0.741686   -3.720226    5.125776
     27          1           0        0.024735   -2.114022    5.293558
 ---------------------------------------------------------------------

 SCF Done:  E(RB3LYP) =  -669.457606140     A.U. after    1 cycles

 Isotropic polarizability for W=    0.000000      139.45 Bohr**3.
 End of Minotr F.D. properties file   721 does not exist.

 ******    1 imaginary frequencies (negative Signs) ******

                      1                      2                      3
                      A                      A                      A
 Frequencies --   -194.0075                52.9616                72.6188
 Red. masses --      5.3291                 5.2515                 3.5386
 Frc consts  --      0.1182                 0.0087                 0.0110
 IR Inten    --     31.2017                 2.6655                 3.4480

                      4                      5                      6
                      A                      A                      A
 Frequencies --     92.2398               143.6811               161.6408
 Red. masses --      3.3785                 1.5337                 2.7427
 Frc consts  --      0.0169                 0.0187                 0.0422
 IR Inten    --      0.8093                 0.9446                 6.1087

                      7                      8                      9
                      A                      A                      A
 Frequencies --    179.8196               194.1277               246.1367
 Red. masses --      5.3668                 5.0536                 2.0570
 Frc consts  --      0.1022                 0.1122                 0.0734
 IR Inten    --     17.7285                 8.4037                 3.5527

                     10                     11                     12
                      A                      A                      A
 Frequencies --    268.8953               322.8714               345.3945
 Red. masses --      3.7807                 6.0342                 4.3536
 Frc consts  --      0.1611                 0.3706                 0.3060
 IR Inten    --      2.9395                17.8558                15.8197

                     13                     14                     15
                      A                      A                      A
 Frequencies --    375.2976               396.6034               432.4527
 Red. masses --      2.7264                 2.4643                 4.7529
 Frc consts  --      0.2263                 0.2284                 0.5237
 IR Inten    --      1.2065                 0.2911                 7.6088

                     16                     17                     18
                      A                      A                      A
 Frequencies --    479.3472               502.4979               548.4212
 Red. masses --      3.0534                10.3676                 4.2426
 Frc consts  --      0.4134                 1.5424                 0.7518
 IR Inten    --      4.6704                 2.0715                 1.6579

                     19                     20                     21
                      A                      A                      A
 Frequencies --    564.0357               647.8122               733.7698
 Red. masses --      5.6598                 4.1488                 3.6360
 Frc consts  --      1.0609                 1.0258                 1.1534
 IR Inten    --      4.5926                 2.1338                 2.1554

                     22                     23                     24
                      A                      A                      A
 Frequencies --    749.5304               775.0559               783.5692
 Red. masses --      1.5702                 3.3166                 2.9691
 Frc consts  --      0.5197                 1.1738                 1.0741
 IR Inten    --     11.4785                 4.1007                19.6912

                     25                     26                     27
                      A                      A                      A
 Frequencies --    799.7432               829.2567               852.7891
 Red. masses --      1.9113                 3.2615                 3.1424
 Frc consts  --      0.7202                 1.3214                 1.3465
 IR Inten    --      1.5376                 7.5443                 0.8506

                     28                     29                     30
                      A                      A                      A
 Frequencies --    904.8886               916.3161               955.6107
 Red. masses --      2.4649                 2.1026                 2.4228
 Frc consts  --      1.1892                 1.0401                 1.3036
 IR Inten    --     24.0792                19.7554                12.6505

                     31                     32                     33
                      A                      A                      A
 Frequencies --    977.1575               985.9861              1006.3190
 Red. masses --      2.0084                 2.1367                 2.2418
 Frc consts  --      1.1299                 1.2239                 1.3376
 IR Inten    --      1.7361                28.3797                 8.7071

                     34                     35                     36
                      A                      A                      A
 Frequencies --   1018.9081              1050.1103              1071.8970
 Red. masses --      2.7997                 2.1672                 2.2086
 Frc consts  --      1.7125                 1.4080                 1.4951
 IR Inten    --     14.4368                25.3414                 4.7883

                     37                     38                     39
                      A                      A                      A
 Frequencies --   1120.2493              1137.2326              1171.3844
 Red. masses --      4.2281                 1.4542                 1.2778
 Frc consts  --      3.1262                 1.1081                 1.0330
 IR Inten    --    240.2613                23.6939                 2.6562

                     40                     41                     42
                      A                      A                      A
 Frequencies --   1173.0229              1191.2602              1192.2459
 Red. masses --      1.0745                 1.2332                 1.4069
 Frc consts  --      0.8711                 1.0311                 1.1783
 IR Inten    --     25.3627               128.8830               106.8044

                     43                     44                     45
                      A                      A                      A
 Frequencies --   1207.8394              1229.8760              1242.1773
 Red. masses --      1.4164                 1.3972                 1.2458
 Frc consts  --      1.2175                 1.2452                 1.1326
 IR Inten    --      3.9316                 7.9301                19.9696

                     46                     47                     48
                      A                      A                      A
 Frequencies --   1303.6877              1323.4124              1333.8207
 Red. masses --      2.8022                 1.6954                 1.7960
 Frc consts  --      2.8061                 1.7495                 1.8825
 IR Inten    --    129.4838                62.0300               109.5486

                     49                     50                     51
                      A                      A                      A
 Frequencies --   1363.1554              1374.6334              1388.2098
 Red. masses --      1.3445                 1.7446                 1.6923
 Frc consts  --      1.4720                 1.9423                 1.9215
 IR Inten    --      4.6497                18.1647                36.5867

                     52                     53                     54
                      A                      A                      A
 Frequencies --   1401.8705              1425.9825              1459.4246
 Red. masses --      4.3474                 1.6811                 1.2543
 Frc consts  --      5.0338                 2.0141                 1.5741
 IR Inten    --     91.4677                 2.4830                49.0532

                     55                     56                     57
                      A                      A                      A
 Frequencies --   1464.9077              1469.9771              1478.7929
 Red. masses --      1.1684                 1.2357                 1.0462
 Frc consts  --      1.4772                 1.5733                 1.3479
 IR Inten    --      8.5714                24.3375                 4.6701

                     58                     59                     60
                      A                      A                      A
 Frequencies --   1501.5606              1503.2658              1510.3898
 Red. masses --      1.0575                 1.1044                 1.9876
 Frc consts  --      1.4048                 1.4705                 2.6716
 IR Inten    --     10.1795                11.0160                10.1858

                     61                     62                     63
                      A                      A                      A
 Frequencies --   1566.6444              1736.2326              3007.4641
 Red. masses --      3.7933                11.5312                 1.0738
 Frc consts  --      5.4854                20.4805                 5.7221
 IR Inten    --     49.5692               253.4510                 2.0623

                     64                     65                     66
                      A                      A                      A
 Frequencies --   3030.7899              3062.5020              3069.0553
 Red. masses --      1.0295                 1.0599                 1.0668
 Frc consts  --      5.5717                 5.8569                 5.9201
 IR Inten    --     79.8014                11.4616                 4.3982

                     67                     68                     69
                      A                      A                      A
 Frequencies --   3072.1641              3095.3892              3102.8427
 Red. masses --      1.0809                 1.1040                 1.0864
 Frc consts  --      6.0105                 6.2326                 6.1627
 IR Inten    --      2.9166                28.0229                 9.3434

                     70                     71                     72
                      A                      A                      A
 Frequencies --   3110.1586              3113.2525              3125.2310
 Red. masses --      1.1059                 1.1061                 1.1036
 Frc consts  --      6.3025                 6.3165                 6.3508
 IR Inten    --      2.3452                33.1398                 0.9298

                     73                     74                     75
                      A                      A                      A
 Frequencies --   3164.4561              3190.8937              3206.9025
 Red. masses --      1.0883                 1.0888                 1.0974
 Frc consts  --      6.4206                 6.5319                 6.6496
 IR Inten    --      9.9865                 3.2215                 2.8719

 - Thermochemistry -
 -------------------
 Temperature   298.150 Kelvin.  Pressure   1.00000 Atm.
 Atom     1 has atomic number  6 and mass  12.00000

 Molecular mass:   195.08954 amu.
 Principal axes and moments of inertia in atomic units:
                           1         2         3
     Eigenvalues --  1593.324752962.909273460.30357
           X           -0.18294   0.32240   0.92876
           Y           -0.58411   0.72424  -0.36645
           Z            0.79079   0.60954  -0.05583
 This molecule is an asymmetric top.
 Rotational symmetry number  1.
 Warning -- assumption of classical behavior for rotation
           may cause significant error
 Rotational temperatures (Kelvin)      0.05436     0.02923     0.02503
 Rotational constants (GHZ):           1.13269     0.60911     0.52156
    1 imaginary frequencies ignored.
 Zero-point vibrational energy     574567.1 (Joules/Mol)
                                  137.32484 (Kcal/Mol)
 Warning -- explicit consideration of  18 degrees of freedom as
           vibrations may cause significant error
 Vibrational temperatures:     76.20   104.48   132.71   206.73   232.57
          (Kelvin)            258.72   279.31   354.14   386.88   464.54
                              496.95   539.97   570.62   622.20   689.67
                              722.98   789.06   811.52   932.06  1055.73
                             1078.41  1115.13  1127.38  1150.65  1193.12
                             1226.97  1301.93  1318.37  1374.91  1405.91
                             1418.61  1447.87  1465.98  1510.87  1542.22
                             1611.79  1636.22  1685.36  1687.72  1713.96
                             1715.38  1737.81  1769.52  1787.22  1875.72
                             1904.10  1919.07  1961.28  1977.79  1997.32
                             2016.98  2051.67  2099.79  2107.68  2114.97
                             2127.65  2160.41  2162.86  2173.11  2254.05
                             2498.05  4327.07  4360.63  4406.26  4415.69
                             4420.16  4453.57  4464.30  4474.82  4479.28
                             4496.51  4552.95  4590.98  4614.02

 Zero-point correction=                           0.218841 (Hartree/Particle)
 Thermal correction to Energy=                    0.231293
 Thermal correction to Enthalpy=                  0.232237
 Thermal correction to Gibbs Free Energy=         0.180107
 Sum of electronic and zero-point Energies=           -669.238765
 Sum of electronic and thermal Energies=              -669.226313
 Sum of electronic and thermal Enthalpies=            -669.225369
 Sum of electronic and thermal Free Energies=         -669.277499

                     E (Thermal)             CV                S
                      KCal/Mol        Cal/Mol-Kelvin    Cal/Mol-Kelvin
 Total                  145.138             48.020            109.716
 Electronic               0.000              0.000              0.000
 Translational            0.889              2.981             41.710
 Rotational               0.889              2.981             31.169
 Vibrational            143.361             42.058             36.837
 Vibration     1          0.596              1.976              4.704
 Vibration     2          0.599              1.967              4.081
 Vibration     3          0.602              1.955              3.612
 Vibration     4          0.616              1.909              2.754
 Vibration     5          0.622              1.889              2.531
 Vibration     6          0.629              1.867              2.330
 Vibration     7          0.635              1.848              2.188
 Vibration     8          0.661              1.769              1.758
 Vibration     9          0.673              1.730              1.603
 Vibration    10          0.708              1.630              1.296
 Vibration    11          0.724              1.585              1.187
 Vibration    12          0.746              1.523              1.058
 Vibration    13          0.763              1.477              0.975
 Vibration    14          0.793              1.400              0.851
 Vibration    15          0.836              1.296              0.712
 Vibration    16          0.858              1.244              0.652
 Vibration    17          0.904              1.143              0.547
 Vibration    18          0.920              1.109              0.516

 Optimization completed.
    -- Stationary point found.
 Normal termination of Gaussian 16 at Fri Jun 10 10:14:18 2022.
