 Gaussian 16, Revision A.03,
 Gaussian 16:  ES64L-G16RevA.03 25-Dec-2016

 ----------------------------------------------------------------------
 # Opt=(Z-matrix, MaxStep=10) B3LYP/Def2TZVP geom=allcheckpoint guess=r
 ead Field=read NoSymm freq=noraman pop=none
 ----------------------------------------------------------------------

 Structure from the checkpoint file:  "checkpoint.chk"
 ------------------
 int_zmat_initalOpt
 ------------------
 Charge =  0 Multiplicity = 1

 SCF Done:  E(RB3LYP) =  -289.046943949     A.U. after    9 cycles
 SCF Done:  E(RB3LYP) =  -289.046776115     A.U. after   10 cycles
 SCF Done:  E(RB3LYP) =  -289.046966260     A.U. after    9 cycles
 SCF Done:  E(RB3LYP) =  -289.046969178     A.U. after    8 cycles
 SCF Done:  E(RB3LYP) =  -289.046969742     A.U. after    6 cycles
 Optimization completed.
    -- Stationary point found.
 Normal termination of Gaussian 16 at Fri Jun 10 11:53:10 2022.

 --------------------------------------------------------------------
 #N Geom=AllCheck Guess=TCheck SCRF=Check GenChk RB3LYP/def2TZVP Freq
 --------------------------------------------------------------------

 Structure from the checkpoint file:  "checkpoint.chk"
 ------------------
 int_zmat_initalOpt
 ------------------
 Charge =  0 Multiplicity = 1

                          Input orientation:
 ---------------------------------------------------------------------
 Center     Atomic      Atomic             Coordinates (Angstroms)
 Number     Number       Type             X           Y           Z
 ---------------------------------------------------------------------
      1          7           0        0.000000    0.000000    0.000000
      2          6           0        0.000000    0.000000    1.521456
      3          8           0        1.281607    0.000000   -0.442324
      4          6           0       -0.687930    1.241094   -0.479831
      5          6           0       -0.722400   -1.196789   -0.544320
      6          6           0        0.803990   -1.146702    2.098814
      7          1           0        0.464535    0.949874    1.780164
      8          1           0       -1.037626    0.000312    1.874422
      9          1           0       -0.642663    1.229366   -1.564678
     10          1           0       -0.113505    2.085518   -0.110482
     11          1           0       -1.723737    1.282838   -0.131983
     12          1           0       -0.170475   -2.080064   -0.241977
     13          1           0       -0.686868   -1.116257   -1.626448
     14          1           0       -1.755906   -1.233871   -0.190226
     15          1           0        1.759159   -1.196607    1.577246
     16          1           0        0.293639   -2.106733    2.005604
     17          1           0        0.984145   -0.964314    3.160801
 ---------------------------------------------------------------------

 SCF Done:  E(RB3LYP) =  -289.046969742     A.U. after    1 cycles

 Isotropic polarizability for W=    0.000000       65.09 Bohr**3.
 End of Minotr F.D. properties file   721 does not exist.

                      1                      2                      3
                      A                      A                      A
 Frequencies --    113.3502               204.7074               240.6476
 Red. masses --      1.8359                 1.0680                 1.1641
 Frc consts  --      0.0139                 0.0264                 0.0397
 IR Inten    --      2.4216                 2.0530                 2.7342

                      4                      5                      6
                      A                      A                      A
 Frequencies --    277.2771               280.9584               368.7946
 Red. masses --      1.1880                 2.0186                 2.6745
 Frc consts  --      0.0538                 0.0939                 0.2143
 IR Inten    --      0.1007                 2.6327                10.7168

                      7                      8                      9
                      A                      A                      A
 Frequencies --    394.6218               432.8171               484.3611
 Red. masses --      2.7353                 2.5161                 3.3593
 Frc consts  --      0.2510                 0.2777                 0.4643
 IR Inten    --      4.9532                 9.2048                11.1790

                     10                     11                     12
                      A                      A                      A
 Frequencies --    539.6599               702.3265               796.4858
 Red. masses --      3.2165                 3.2852                 1.2419
 Frc consts  --      0.5519                 0.9548                 0.4642
 IR Inten    --      7.3003                 1.6781                 1.6087

                     13                     14                     15
                      A                      A                      A
 Frequencies --    884.5517               924.9232               944.1070
 Red. masses --      2.3422                 1.9773                 4.5874
 Frc consts  --      1.0798                 0.9967                 2.4091
 IR Inten    --      3.8652                 1.5694                29.0484

                     16                     17                     18
                      A                      A                      A
 Frequencies --   1001.6843              1072.8145              1110.0786
 Red. masses --      1.7729                 1.4187                 1.7157
 Frc consts  --      1.0481                 0.9620                 1.2457
 IR Inten    --      3.7635                 0.9289                 1.4806

                     19                     20                     21
                      A                      A                      A
 Frequencies --   1131.9051              1202.2937              1232.2964
 Red. masses --      1.4605                 1.7933                 2.1325
 Frc consts  --      1.1025                 1.5273                 1.9080
 IR Inten    --      2.0233                 6.2006                 0.4515

                     22                     23                     24
                      A                      A                      A
 Frequencies --   1255.6379              1320.8107              1377.5046
 Red. masses --      1.9044                 1.2815                 1.2285
 Frc consts  --      1.7690                 1.3172                 1.3734
 IR Inten    --      2.4802                 4.4494                 2.8135

                     25                     26                     27
                      A                      A                      A
 Frequencies --   1398.6159              1414.9832              1445.5564
 Red. masses --      1.2970                 1.1692                 1.2052
 Frc consts  --      1.4948                 1.3792                 1.4838
 IR Inten    --     14.3422                 1.8834                 2.4864

                     28                     29                     30
                      A                      A                      A
 Frequencies --   1457.4194              1473.5671              1479.1923
 Red. masses --      1.0574                 1.0591                 1.0535
 Frc consts  --      1.3233                 1.3550                 1.3582
 IR Inten    --      0.9314                 1.2844                 9.3125

                     31                     32                     33
                      A                      A                      A
 Frequencies --   1484.7077              1491.8398              1506.2675
 Red. masses --      1.0734                 1.0548                 1.0497
 Frc consts  --      1.3940                 1.3831                 1.4032
 IR Inten    --      9.1279                12.8495                15.2644

                     34                     35                     36
                      A                      A                      A
 Frequencies --   1513.3141              3002.1184              3023.7834
 Red. masses --      1.0527                 1.0671                 1.0453
 Frc consts  --      1.4205                 5.6662                 5.6309
 IR Inten    --      1.8293                31.5181                19.1329

                     37                     38                     39
                      A                      A                      A
 Frequencies --   3034.3316              3038.7770              3084.2260
 Red. masses --      1.0379                 1.0448                 1.0995
 Frc consts  --      5.6305                 5.6843                 6.1620
 IR Inten    --     42.7289                95.9707                19.1070

                     40                     41                     42
                      A                      A                      A
 Frequencies --   3110.0060              3128.5373              3139.0537
 Red. masses --      1.0941                 1.1012                 1.0888
 Frc consts  --      6.2350                 6.3502                 6.3209
 IR Inten    --     21.0785                 3.5398                 8.0895

                     43                     44                     45
                      A                      A                      A
 Frequencies --   3148.7439              3174.2840              3183.8725
 Red. masses --      1.0889                 1.1067                 1.1059
 Frc consts  --      6.3611                 6.5700                 6.6051
 IR Inten    --      9.5590                 4.0762                 3.5510

 - Thermochemistry -
 -------------------
 Temperature   298.150 Kelvin.  Pressure   1.00000 Atm.
 Atom     1 has atomic number  7 and mass  14.00307

 Molecular mass:    89.08406 amu.
 Principal axes and moments of inertia in atomic units:
                           1         2         3
     Eigenvalues --   364.08957 649.16640 674.42635
           X            0.33309   0.14679   0.93140
           Y           -0.45322   0.89114   0.02163
           Z            0.82683   0.42933  -0.36336
 This molecule is an asymmetric top.
 Rotational symmetry number  1.
 Rotational temperatures (Kelvin)      0.23789     0.13342     0.12843
 Rotational constants (GHZ):           4.95686     2.78009     2.67596
 Zero-point vibrational energy     400915.4 (Joules/Mol)
                                   95.82107 (Kcal/Mol)
 Warning -- explicit consideration of  10 degrees of freedom as
           vibrations may cause significant error
 Vibrational temperatures:    163.09   294.53   346.24   398.94   404.24
          (Kelvin)            530.61   567.77   622.73   696.89   776.45
                             1010.49  1145.97  1272.67  1330.76  1358.36
                             1441.20  1543.54  1597.16  1628.56  1729.83
                             1773.00  1806.58  1900.35  1981.92  2012.30
                             2035.85  2079.83  2096.90  2120.13  2128.23
                             2136.16  2146.42  2167.18  2177.32  4319.38
                             4350.55  4365.73  4372.12  4437.51  4474.61
                             4501.27  4516.40  4530.34  4567.09  4580.88

 Zero-point correction=                           0.152701 (Hartree/Particle)
 Thermal correction to Energy=                    0.160130
 Thermal correction to Enthalpy=                  0.161074
 Thermal correction to Gibbs Free Energy=         0.122220
 Sum of electronic and zero-point Energies=           -288.894269
 Sum of electronic and thermal Energies=              -288.886840
 Sum of electronic and thermal Enthalpies=            -288.885896
 Sum of electronic and thermal Free Energies=         -288.924750

                     E (Thermal)             CV                S
                      KCal/Mol        Cal/Mol-Kelvin    Cal/Mol-Kelvin
 Total                  100.483             27.578             81.776
 Electronic               0.000              0.000              0.000
 Translational            0.889              2.981             39.373
 Rotational               0.889              2.981             26.569
 Vibrational             98.706             21.616             15.833
 Vibration     1          0.607              1.938              3.211
 Vibration     2          0.640              1.833              2.090
 Vibration     3          0.658              1.778              1.798
 Vibration     4          0.678              1.715              1.550
 Vibration     5          0.681              1.709              1.528
 Vibration     6          0.741              1.536              1.085
 Vibration     7          0.762              1.482              0.983
 Vibration     8          0.794              1.399              0.849
 Vibration     9          0.840              1.285              0.698
 Vibration    10          0.895              1.162              0.566

 Optimization completed.
    -- Stationary point found.
 Normal termination of Gaussian 16 at Fri Jun 10 11:57:45 2022.
