 Gaussian 16, Revision A.03,
 Gaussian 16:  ES64L-G16RevA.03 25-Dec-2016

 ----------------------------------------------------------------------
 # Opt=(TS, CalcFC, noeigentest, Z-matrix, MaxStep=10) Field=read NoSym
 m B3LYP/Def2TZVP freq=noraman pop=none
 ----------------------------------------------------------------------

 -----------------
 ts_zmat_initalOpt
 -----------------
 Symbolic Z-matrix:
 Charge =  0 Multiplicity = 1

 SCF Done:  E(RB3LYP) =  -439.138903326     A.U. after   15 cycles
 SCF Done:  E(RB3LYP) =  -439.138965356     A.U. after   12 cycles
 SCF Done:  E(RB3LYP) =  -439.138976011     A.U. after   10 cycles
 SCF Done:  E(RB3LYP) =  -439.138927520     A.U. after   11 cycles
 SCF Done:  E(RB3LYP) =  -439.138974522     A.U. after   11 cycles
 SCF Done:  E(RB3LYP) =  -439.138980307     A.U. after   10 cycles
 SCF Done:  E(RB3LYP) =  -439.138980901     A.U. after    8 cycles
 Optimization completed.
    -- Stationary point found.

 1\1\GINC-BHC0105\FTS\RB3LYP\def2TZVP\C8H7N1O1\DHANAWAY\10-Jun-2022\1\\
 # Opt=(TS, CalcFC, noeigentest, Z-matrix, MaxStep=10) Field=read NoSym
 m B3LYP/Def2TZVP freq=noraman pop=none\\ts_zmat_initalOpt\\0,1\H\N,1,R
 2\C,2,R3,1,A3\C,2,R4,1,A4,3,D4,0\H,3,R5,2,A5,1,D5,0\C,3,R6,2,A6,5,D6,0
 \C,4,R7,2,A7,1,D7,0\C,4,R8,2,A8,7,D8,0\H,6,R9,3,A9,2,D9,0\H,8,R10,4,A1
 0,2,D10,0\H,7,R11,4,A11,2,D11,0\C,8,R12,4,A12,10,D12,0\H,12,R13,8,A13,
 4,D13,0\C,12,R14,8,A14,13,D14,0\H,14,R15,12,A15,8,D15,0\C,14,R16,12,A1
 6,15,D16,0\O,16,R17,14,A17,12,D17,0\\R2=1.00641215\R3=1.38874697\R4=1.

 Normal termination of Gaussian 16 at Fri Jun 10 22:49:51 2022.

 --------------------------------------------------------------------
 #N Geom=AllCheck Guess=TCheck SCRF=Check GenChk RB3LYP/def2TZVP Freq
 --------------------------------------------------------------------

 Structure from the checkpoint file:  "checkpoint.chk"
 -----------------
 ts_zmat_initalOpt
 -----------------
 Charge =  0 Multiplicity = 1

                          Input orientation:
 ---------------------------------------------------------------------
 Center     Atomic      Atomic             Coordinates (Angstroms)
 Number     Number       Type             X           Y           Z
 ---------------------------------------------------------------------
      1          1           0        0.000000    0.000000    0.000000
      2          7           0        0.000000    0.000000    1.006412
      3          6           0        1.135937    0.000000    1.805327
      4          6           0       -1.114191   -0.145735    1.771167
      5          1           0        2.114499    0.095744    1.366274
      6          6           0        0.752616   -0.139371    3.100567
      7          6           0       -0.686338   -0.243185    3.116181
      8          6           0       -2.436721   -0.367321    1.307630
      9          1           0        1.406835   -0.151296    3.955688
     10          1           0       -2.755792    0.000248    0.341635
     11          1           0       -1.290080    0.169751    3.914527
     12          6           0       -3.238640   -1.208806    2.025131
     13          1           0       -4.218407   -1.430197    1.616899
     14          6           0       -2.904540   -1.923574    3.205167
     15          1           0       -3.550229   -2.743684    3.504994
     16          6           0       -1.720739   -1.902523    3.900661
     17          8           0       -1.148616   -2.313671    4.847711
 ---------------------------------------------------------------------

 SCF Done:  E(RB3LYP) =  -439.138980901     A.U. after    1 cycles

 Isotropic polarizability for W=    0.000000      108.09 Bohr**3.
 End of Minotr F.D. properties file   721 does not exist.

 ******    1 imaginary frequencies (negative Signs) ******

                      1                      2                      3
                      A                      A                      A
 Frequencies --   -412.8666               111.7840               135.9154
 Red. masses --      6.7645                 6.0256                 4.6272
 Frc consts  --      0.6794                 0.0444                 0.0504
 IR Inten    --    163.4912                 1.2601                 1.9217

                      4                      5                      6
                      A                      A                      A
 Frequencies --    269.4725               286.6292               335.3257
 Red. masses --      4.9145                 3.3539                 7.6201
 Frc consts  --      0.2103                 0.1623                 0.5048
 IR Inten    --     18.3921                 3.5582                 3.3314

                      7                      8                      9
                      A                      A                      A
 Frequencies --    460.3510               508.3157               560.4393
 Red. masses --      4.7030                 3.5620                 1.4807
 Frc consts  --      0.5872                 0.5423                 0.2740
 IR Inten    --      7.1081                 5.6436                37.9310

                     10                     11                     12
                      A                      A                      A
 Frequencies --    563.7848               610.5460               625.2490
 Red. masses --      2.4306                 3.1624                 3.2311
 Frc consts  --      0.4552                 0.6946                 0.7442
 IR Inten    --     11.2597                 8.6772                 4.9792

                     13                     14                     15
                      A                      A                      A
 Frequencies --    677.2321               709.9510               742.4036
 Red. masses --      1.7046                 2.0132                 1.4409
 Frc consts  --      0.4606                 0.5979                 0.4679
 IR Inten    --     44.3859                69.2208                41.4061

                     16                     17                     18
                      A                      A                      A
 Frequencies --    760.3477               805.6632               848.5463
 Red. masses --      1.9635                 2.1823                 4.5902
 Frc consts  --      0.6688                 0.8346                 1.9473
 IR Inten    --      6.1090                61.4631                28.5476

                     19                     20                     21
                      A                      A                      A
 Frequencies --    876.0540               894.7730               961.3522
 Red. masses --      1.3204                 5.4156                 1.3174
 Frc consts  --      0.5971                 2.5546                 0.7173
 IR Inten    --      0.8800                 7.5664                 2.0160

                     22                     23                     24
                      A                      A                      A
 Frequencies --    989.7596               998.2612              1043.4435
 Red. masses --      2.3982                 2.1208                 1.3677
 Frc consts  --      1.3842                 1.2452                 0.8774
 IR Inten    --      4.5361                 7.9952                 6.8262

                     25                     26                     27
                      A                      A                      A
 Frequencies --   1092.1860              1126.1261              1145.3958
 Red. masses --      2.0331                 1.6349                 1.4153
 Frc consts  --      1.4289                 1.2216                 1.0940
 IR Inten    --     13.2375                 4.0360                 6.4106

                     28                     29                     30
                      A                      A                      A
 Frequencies --   1202.3128              1246.8432              1281.8389
 Red. masses --      1.1262                 1.9456                 1.7232
 Frc consts  --      0.9592                 1.7821                 1.6682
 IR Inten    --     16.9896                 1.0778                 2.5912

                     31                     32                     33
                      A                      A                      A
 Frequencies --   1387.7849              1407.5377              1435.9073
 Red. masses --      1.8484                 2.6178                 3.0220
 Frc consts  --      2.0974                 3.0557                 3.6711
 IR Inten    --     17.2763                 9.7969                50.7505

                     34                     35                     36
                      A                      A                      A
 Frequencies --   1461.4154              1541.1774              1579.6238
 Red. masses --      2.2734                 4.8685                 4.9376
 Frc consts  --      2.8608                 6.8132                 7.2590
 IR Inten    --     20.2909                 7.0027               155.8391

                     37                     38                     39
                      A                      A                      A
 Frequencies --   1602.0175              1942.3595              3136.8839
 Red. masses --      3.6637                12.7167                 1.0840
 Frc consts  --      5.5399                28.2672                 6.2845
 IR Inten    --     20.4205               779.0472                 9.4821

                     40                     41                     42
                      A                      A                      A
 Frequencies --   3163.4030              3170.7818              3191.1498
 Red. masses --      1.0873                 1.0898                 1.0925
 Frc consts  --      6.4105                 6.4555                 6.5549
 IR Inten    --      8.8215                 2.5569                 6.7902

                     43                     44                     45
                      A                      A                      A
 Frequencies --   3250.5219              3269.1036              3633.7030
 Red. masses --      1.0899                 1.1047                 1.0800
 Frc consts  --      6.7849                 6.9557                 8.4021
 IR Inten    --      1.2336                 0.3245                84.5161

 - Thermochemistry -
 -------------------
 Temperature   298.150 Kelvin.  Pressure   1.00000 Atm.
 Atom     1 has atomic number  1 and mass   1.00783

 Molecular mass:   133.05276 amu.
 Principal axes and moments of inertia in atomic units:
                           1         2         3
     Eigenvalues --   835.393761327.160832061.95600
           X            0.72930   0.62363  -0.28143
           Y            0.50040  -0.20567   0.84101
           Z           -0.46660   0.75418   0.46206
 This molecule is an asymmetric top.
 Rotational symmetry number  1.
 Warning -- assumption of classical behavior for rotation
           may cause significant error
 Rotational temperatures (Kelvin)      0.10368     0.06526     0.04201
 Rotational constants (GHZ):           2.16035     1.35985     0.87526
    1 imaginary frequencies ignored.
 Zero-point vibrational energy     341196.9 (Joules/Mol)
                                   81.54802 (Kcal/Mol)
 Warning -- explicit consideration of  10 degrees of freedom as
           vibrations may cause significant error
 Vibrational temperatures:    160.83   195.55   387.71   412.40   482.46
          (Kelvin)            662.34   731.35   806.35   811.16   878.44
                              899.59   974.39  1021.46  1068.15  1093.97
                             1159.17  1220.87  1260.45  1287.38  1383.17
                             1424.04  1436.28  1501.28  1571.41  1620.24
                             1647.97  1729.86  1793.93  1844.28  1996.71
                             2025.13  2065.95  2102.65  2217.41  2272.73
                             2304.95  2794.62  4513.28  4551.43  4562.05
                             4591.35  4676.78  4703.51  5228.09

 Zero-point correction=                           0.129955 (Hartree/Particle)
 Thermal correction to Energy=                    0.137555
 Thermal correction to Enthalpy=                  0.138499
 Thermal correction to Gibbs Free Energy=         0.097618
 Sum of electronic and zero-point Energies=           -439.009026
 Sum of electronic and thermal Energies=              -439.001426
 Sum of electronic and thermal Enthalpies=            -439.000481
 Sum of electronic and thermal Free Energies=         -439.041363

                     E (Thermal)             CV                S
                      KCal/Mol        Cal/Mol-Kelvin    Cal/Mol-Kelvin
 Total                   86.317             30.473             86.042
 Electronic               0.000              0.000              0.000
 Translational            0.889              2.981             40.569
 Rotational               0.889              2.981             29.215
 Vibrational             84.540             24.511             16.258
 Vibration     1          0.607              1.940              3.238
 Vibration     2          0.614              1.917              2.861
 Vibration     3          0.674              1.729              1.600
 Vibration     4          0.684              1.699              1.494
 Vibration     5          0.716              1.605              1.234
 Vibration     6          0.818              1.338              0.765
 Vibration     7          0.863              1.232              0.638
 Vibration     8          0.916              1.117              0.523
 Vibration     9          0.920              1.110              0.516
 Vibration    10          0.970              1.010              0.432

                       ! Non-Optimized Parameters !
 Normal termination of Gaussian 16 at Fri Jun 10 23:00:59 2022.
