 Gaussian 16, Revision A.03,
 Gaussian 16:  ES64L-G16RevA.03 25-Dec-2016

 ----------------------------------------------------------------------
 # Opt=(Z-matrix, MaxStep=10) B3LYP/Def2TZVP geom=allcheckpoint guess=r
 ead Field=read NoSymm freq=noraman pop=none
 ----------------------------------------------------------------------

 Structure from the checkpoint file:  "checkpoint.chk"
 ------------------
 int_zmat_initalOpt
 ------------------
 Charge =  0 Multiplicity = 1

 SCF Done:  E(RB3LYP) =  -269.424447033     A.U. after   10 cycles
 SCF Done:  E(RB3LYP) =  -269.424457543     A.U. after   10 cycles
 SCF Done:  E(RB3LYP) =  -269.424465681     A.U. after    9 cycles
 SCF Done:  E(RB3LYP) =  -269.424469640     A.U. after    9 cycles
 SCF Done:  E(RB3LYP) =  -269.424472167     A.U. after    9 cycles
 SCF Done:  E(RB3LYP) =  -269.424472816     A.U. after    8 cycles
 Optimization completed.
    -- Stationary point found.
 Normal termination of Gaussian 16 at Fri Jun 10 03:28:42 2022.

 --------------------------------------------------------------------
 #N Geom=AllCheck Guess=TCheck SCRF=Check GenChk RB3LYP/def2TZVP Freq
 --------------------------------------------------------------------

 Structure from the checkpoint file:  "checkpoint.chk"
 ------------------
 int_zmat_initalOpt
 ------------------
 Charge =  0 Multiplicity = 1

                          Input orientation:
 ---------------------------------------------------------------------
 Center     Atomic      Atomic             Coordinates (Angstroms)
 Number     Number       Type             X           Y           Z
 ---------------------------------------------------------------------
      1          1           0        0.000000    0.000000    0.000000
      2          6           0        0.000000    0.000000    1.082009
      3          6           0        1.126458    0.000000    1.798456
      4          6           0       -1.317203   -0.067608    1.796864
      5          1           0        2.095786    0.029316    1.317759
      6          6           0        1.045881    0.058353    3.250445
      7          8           0       -1.274172    0.544329    3.107344
      8          1           0       -2.102451    0.460372    1.257849
      9          1           0       -1.641052   -1.114181    1.929909
     10          1           0        1.930281   -0.013378    3.866490
     11          6           0       -0.130338    0.372614    3.810046
     12          1           0       -0.262568    0.608194    4.858708
 ---------------------------------------------------------------------

 SCF Done:  E(RB3LYP) =  -269.424472816     A.U. after    1 cycles

 Isotropic polarizability for W=    0.000000       59.58 Bohr**3.
 End of Minotr F.D. properties file   721 does not exist.

                      1                      2                      3
                      A                      A                      A
 Frequencies --    145.1969               331.0765               503.8277
 Red. masses --      2.2515                 2.7066                 3.4203
 Frc consts  --      0.0280                 0.1748                 0.5115
 IR Inten    --      1.8761                11.1416                14.4328

                      4                      5                      6
                      A                      A                      A
 Frequencies --    569.0889               619.8648               724.5936
 Red. masses --      3.0348                 5.0507                 1.4709
 Frc consts  --      0.5791                 1.1434                 0.4550
 IR Inten    --     13.3370                 0.9808                53.5908

                      7                      8                      9
                      A                      A                      A
 Frequencies --    771.8560               857.8623               915.3004
 Red. masses --      1.3671                 4.0434                 1.3619
 Frc consts  --      0.4799                 1.7532                 0.6722
 IR Inten    --      9.7477                14.4310                 2.9833

                     10                     11                     12
                      A                      A                      A
 Frequencies --    955.7174               974.6598               982.3715
 Red. masses --      2.7971                 2.5125                 2.1256
 Frc consts  --      1.5053                 1.4063                 1.2086
 IR Inten    --     10.1112                20.1413                 3.1648

                     13                     14                     15
                      A                      A                      A
 Frequencies --    996.3020              1078.5118              1098.1819
 Red. masses --      1.6596                 2.2602                 2.0008
 Frc consts  --      0.9706                 1.5490                 1.4217
 IR Inten    --      4.4122                 4.8522                62.1504

                     16                     17                     18
                      A                      A                      A
 Frequencies --   1195.5358              1247.2931              1276.9207
 Red. masses --      1.1039                 1.3994                 1.1618
 Frc consts  --      0.9296                 1.2827                 1.1161
 IR Inten    --      0.5659                39.8394                14.2176

                     19                     20                     21
                      A                      A                      A
 Frequencies --   1371.4157              1417.3676              1448.8518
 Red. masses --      1.2109                 1.5506                 1.7379
 Frc consts  --      1.3418                 1.8353                 2.1494
 IR Inten    --      0.4949                10.8080                 6.4487

                     22                     23                     24
                      A                      A                      A
 Frequencies --   1502.0710              1628.3296              1698.4947
 Red. masses --      1.1076                 5.9022                 5.4631
 Frc consts  --      1.4724                 9.2204                 9.2858
 IR Inten    --      1.2113                40.1045                29.2544

                     25                     26                     27
                      A                      A                      A
 Frequencies --   2906.2235              3098.2113              3178.2649
 Red. masses --      1.0741                 1.0880                 1.0870
 Frc consts  --      5.3453                 6.1533                 6.4696
 IR Inten    --    130.3016                16.0300                 4.0345

                     28                     29                     30
                      A                      A                      A
 Frequencies --   3182.1859              3199.1178              3213.0935
 Red. masses --      1.0876                 1.0972                 1.0971
 Frc consts  --      6.4887                 6.6159                 6.6731
 IR Inten    --      8.8453                 5.8649                13.6421

 - Thermochemistry -
 -------------------
 Temperature   298.150 Kelvin.  Pressure   1.00000 Atm.
 Atom     1 has atomic number  1 and mass   1.00783

 Molecular mass:    82.04186 amu.
 Principal axes and moments of inertia in atomic units:
                           1         2         3
     Eigenvalues --   324.15848 336.46264 636.79411
           X            0.80703   0.58471   0.08259
           Y           -0.16263   0.08561   0.98297
           Z           -0.56768   0.80671  -0.16418
 This molecule is an asymmetric top.
 Rotational symmetry number  1.
 Rotational temperatures (Kelvin)      0.26720     0.25743     0.13602
 Rotational constants (GHZ):           5.56747     5.36387     2.83410
 Zero-point vibrational energy     257722.2 (Joules/Mol)
                                   61.59709 (Kcal/Mol)
 Warning -- explicit consideration of   5 degrees of freedom as
           vibrations may cause significant error
 Vibrational temperatures:    208.91   476.35   724.90   818.79   891.85
          (Kelvin)           1042.53  1110.53  1234.27  1316.91  1375.06
                             1402.32  1413.41  1433.46  1551.74  1580.04
                             1720.11  1794.58  1837.20  1973.16  2039.28
                             2084.57  2161.15  2342.80  2443.75  4181.41
                             4457.63  4572.81  4578.46  4602.82  4622.92

 Zero-point correction=                           0.098161 (Hartree/Particle)
 Thermal correction to Energy=                    0.103169
 Thermal correction to Enthalpy=                  0.104113
 Thermal correction to Gibbs Free Energy=         0.069922
 Sum of electronic and zero-point Energies=           -269.326312
 Sum of electronic and thermal Energies=              -269.321304
 Sum of electronic and thermal Enthalpies=            -269.320360
 Sum of electronic and thermal Free Energies=         -269.354551

                     E (Thermal)             CV                S
                      KCal/Mol        Cal/Mol-Kelvin    Cal/Mol-Kelvin
 Total                   64.739             18.535             71.961
 Electronic               0.000              0.000              0.000
 Translational            0.889              2.981             39.128
 Rotational               0.889              2.981             25.744
 Vibrational             62.962             12.573              7.089
 Vibration     1          0.617              1.908              2.734
 Vibration     2          0.713              1.613              1.255
 Vibration     3          0.859              1.242              0.649
 Vibration     4          0.925              1.098              0.506
 Vibration     5          0.980              0.990              0.417

                       ! Non-Optimized Parameters !
 Normal termination of Gaussian 16 at Fri Jun 10 03:31:16 2022.
