 Gaussian 16, Revision A.03,
 Gaussian 16:  ES64L-G16RevA.03 25-Dec-2016

 ----------------------------------------------------------------------
 # Opt=(Z-matrix, MaxStep=10) B3LYP/Def2TZVP geom=allcheckpoint guess=r
 ead Field=read NoSymm freq=noraman pop=none
 ----------------------------------------------------------------------

 Structure from the checkpoint file:  "checkpoint.chk"
 ------------------
 int_zmat_initalOpt
 ------------------
 Charge =  0 Multiplicity = 1

 SCF Done:  E(RB3LYP) =  -269.423420856     A.U. after   10 cycles
 SCF Done:  E(RB3LYP) =  -269.423433831     A.U. after    9 cycles
 SCF Done:  E(RB3LYP) =  -269.423439883     A.U. after    8 cycles
 SCF Done:  E(RB3LYP) =  -269.423442382     A.U. after    9 cycles
 SCF Done:  E(RB3LYP) =  -269.423442969     A.U. after    8 cycles
 Optimization completed.
    -- Stationary point found.
 Normal termination of Gaussian 16 at Fri Jun 10 03:14:21 2022.

 --------------------------------------------------------------------
 #N Geom=AllCheck Guess=TCheck SCRF=Check GenChk RB3LYP/def2TZVP Freq
 --------------------------------------------------------------------

 Structure from the checkpoint file:  "checkpoint.chk"
 ------------------
 int_zmat_initalOpt
 ------------------
 Charge =  0 Multiplicity = 1

                          Input orientation:
 ---------------------------------------------------------------------
 Center     Atomic      Atomic             Coordinates (Angstroms)
 Number     Number       Type             X           Y           Z
 ---------------------------------------------------------------------
      1          1           0        0.000000    0.000000    0.000000
      2          6           0        0.000000    0.000000    1.081971
      3          6           0        1.125730    0.000000    1.800564
      4          6           0       -1.314075   -0.055129    1.804293
      5          1           0        2.096744    0.017844    1.322277
      6          6           0        1.042983    0.074321    3.251084
      7          8           0       -1.264342    0.604744    3.089726
      8          1           0       -2.108052    0.446653    1.253509
      9          1           0       -1.626198   -1.098552    1.978378
     10          1           0        1.922513   -0.014249    3.871622
     11          6           0       -0.128669    0.421315    3.802363
     12          1           0       -0.260789    0.673166    4.847001
 ---------------------------------------------------------------------

 SCF Done:  E(RB3LYP) =  -269.423442969     A.U. after    1 cycles

 Isotropic polarizability for W=    0.000000       59.53 Bohr**3.
 End of Minotr F.D. properties file   721 does not exist.

                      1                      2                      3
                      A                      A                      A
 Frequencies --    160.7426               332.6756               502.5610
 Red. masses --      2.2292                 2.7290                 3.2966
 Frc consts  --      0.0339                 0.1779                 0.4906
 IR Inten    --      2.0566                11.5508                14.7975

                      4                      5                      6
                      A                      A                      A
 Frequencies --    570.8827               618.5933               724.3949
 Red. masses --      3.0669                 4.9309                 1.4957
 Frc consts  --      0.5889                 1.1117                 0.4624
 IR Inten    --     13.7483                 0.8542                50.5248

                      7                      8                      9
                      A                      A                      A
 Frequencies --    772.9076               860.5419               921.0285
 Red. masses --      1.3546                 3.8979                 1.3851
 Frc consts  --      0.4768                 1.7007                 0.6923
 IR Inten    --     12.8066                13.1927                 2.1463

                     10                     11                     12
                      A                      A                      A
 Frequencies --    954.8007               973.9511               980.6931
 Red. masses --      2.7353                 2.5658                 1.8637
 Frc consts  --      1.4692                 1.4340                 1.0561
 IR Inten    --      9.6513                22.3931                 1.2915

                     13                     14                     15
                      A                      A                      A
 Frequencies --    995.2613              1080.7251              1098.6429
 Red. masses --      1.8646                 2.2620                 2.0071
 Frc consts  --      1.0882                 1.5566                 1.4274
 IR Inten    --      5.1987                 4.8760                60.4291

                     16                     17                     18
                      A                      A                      A
 Frequencies --   1192.6850              1247.2710              1278.1200
 Red. masses --      1.1085                 1.4178                 1.1483
 Frc consts  --      0.9290                 1.2996                 1.1053
 IR Inten    --      0.5451                42.5094                11.5776

                     19                     20                     21
                      A                      A                      A
 Frequencies --   1370.9758              1416.3645              1448.7285
 Red. masses --      1.2117                 1.5494                 1.7445
 Frc consts  --      1.3419                 1.8313                 2.1572
 IR Inten    --      0.5699                10.8551                 6.8255

                     22                     23                     24
                      A                      A                      A
 Frequencies --   1501.4531              1624.6819              1696.2945
 Red. masses --      1.1087                 5.8415                 5.4465
 Frc consts  --      1.4726                 9.0848                 9.2336
 IR Inten    --      1.4339                42.6661                29.6806

                     25                     26                     27
                      A                      A                      A
 Frequencies --   2916.2686              3100.1299              3177.7308
 Red. masses --      1.0740                 1.0883                 1.0859
 Frc consts  --      5.3814                 6.1628                 6.4605
 IR Inten    --    114.3844                18.0444                 2.0337

                     28                     29                     30
                      A                      A                      A
 Frequencies --   3184.3513              3197.6936              3215.1604
 Red. masses --      1.0888                 1.0972                 1.0971
 Frc consts  --      6.5046                 6.6104                 6.6816
 IR Inten    --      8.1990                 7.7445                12.0948

 - Thermochemistry -
 -------------------
 Temperature   298.150 Kelvin.  Pressure   1.00000 Atm.
 Atom     1 has atomic number  1 and mass   1.00783

 Molecular mass:    82.04186 amu.
 Principal axes and moments of inertia in atomic units:
                           1         2         3
     Eigenvalues --   323.64722 336.14371 634.24975
           X            0.79528   0.59871   0.09528
           Y           -0.18483   0.08978   0.97866
           Z           -0.57738   0.79592  -0.18206
 This molecule is an asymmetric top.
 Rotational symmetry number  1.
 Rotational temperatures (Kelvin)      0.26762     0.25767     0.13656
 Rotational constants (GHZ):           5.57626     5.36896     2.84547
 Zero-point vibrational energy     257892.8 (Joules/Mol)
                                   61.63786 (Kcal/Mol)
 Warning -- explicit consideration of   5 degrees of freedom as
           vibrations may cause significant error
 Vibrational temperatures:    231.27   478.65   723.07   821.37   890.02
          (Kelvin)           1042.24  1112.04  1238.13  1325.15  1373.75
                             1401.30  1411.00  1431.96  1554.92  1580.70
                             1716.01  1794.54  1838.93  1972.53  2037.83
                             2084.40  2160.26  2337.55  2440.59  4195.86
                             4460.40  4572.05  4581.57  4600.77  4625.90

 Zero-point correction=                           0.098226 (Hartree/Particle)
 Thermal correction to Energy=                    0.103204
 Thermal correction to Enthalpy=                  0.104148
 Thermal correction to Gibbs Free Energy=         0.070057
 Sum of electronic and zero-point Energies=           -269.325217
 Sum of electronic and thermal Energies=              -269.320239
 Sum of electronic and thermal Enthalpies=            -269.319295
 Sum of electronic and thermal Free Energies=         -269.353386

                     E (Thermal)             CV                S
                      KCal/Mol        Cal/Mol-Kelvin    Cal/Mol-Kelvin
 Total                   64.762             18.508             71.752
 Electronic               0.000              0.000              0.000
 Translational            0.889              2.981             39.128
 Rotational               0.889              2.981             25.737
 Vibrational             62.984             12.547              6.886
 Vibration     1          0.622              1.890              2.541
 Vibration     2          0.715              1.610              1.247
 Vibration     3          0.858              1.244              0.652
 Vibration     4          0.927              1.094              0.503
 Vibration     5          0.978              0.993              0.419

                       ! Non-Optimized Parameters !
 Normal termination of Gaussian 16 at Fri Jun 10 03:16:56 2022.
