 Gaussian 16, Revision A.03,
 Gaussian 16:  ES64L-G16RevA.03 25-Dec-2016

 --------------------------
 # sp B3LYP/Def2TZVP NoSymm
 --------------------------

 ---------------------------
 ts_initalOpt_zmat_AlignedSp
 ---------------------------
 Symbolic Z-matrix:
 Charge =  0 Multiplicity = 1

                          Input orientation:
 ---------------------------------------------------------------------
 Center     Atomic      Atomic             Coordinates (Angstroms)
 Number     Number       Type             X           Y           Z
 ---------------------------------------------------------------------
      1          6           0        0.000000    0.000000    0.000000
      2          6           0        0.000000    0.000000    1.405453
      3          6           0        1.218848    0.000000   -0.713076
      4          6           0       -1.033416   -0.061446   -0.977524
      5          1           0       -0.915748    0.112586    1.973581
      6          6           0        1.200848   -0.261653    2.034232
      7          6           0        2.412755   -0.382510   -0.077805
      8          6           0        0.918070    0.488902   -2.016067
      9          1           0       -1.016157   -0.878678   -1.680530
     10          1           0       -2.003968    0.412690   -0.845572
     11          6           0        2.384505   -0.496541    1.297717
     12          1           0        1.236446   -0.329150    3.114521
     13          1           0        3.338081   -0.498165   -0.629561
     14          1           0        0.442321    1.453027   -2.096748
     15          1           0        1.442872    0.157578   -2.909931
     16          1           0        3.295033   -0.732167    1.834623
 ---------------------------------------------------------------------

 SCF Done:  E(RB3LYP) =  -309.678349546     A.U. after   14 cycles

 Alpha  occ. eigenvalues --  -10.19119 -10.19119 -10.18024 -10.17978 -10.17685
 Alpha  occ. eigenvalues --  -10.17684 -10.17570 -10.17525  -0.87271  -0.79379
 Alpha  occ. eigenvalues --   -0.75980  -0.68333  -0.66637  -0.59379  -0.56988
 Alpha  occ. eigenvalues --   -0.51025  -0.47434  -0.45895  -0.44913  -0.42905
 Alpha  occ. eigenvalues --   -0.41364  -0.40141  -0.36344  -0.35282  -0.34451
 Alpha  occ. eigenvalues --   -0.27423  -0.24837  -0.21797
 Alpha virt. eigenvalues --   -0.06621  -0.00702  -0.00261   0.05535   0.05897
 Alpha virt. eigenvalues --    0.07497   0.09649   0.10165   0.11225   0.11310
 Alpha virt. eigenvalues --    0.12560   0.13340   0.14220   0.16656   0.18311

 Mulliken charges:
               1
     1  C    0.108390
     2  C   -0.196950
     3  C    0.108357
     4  C   -0.290392
     5  H    0.102878
     6  C   -0.097143
     7  C   -0.196928
     8  C   -0.290388
     9  H    0.146734
    10  H    0.118227
    11  C   -0.097154
    12  H    0.108265
    13  H    0.102879
    14  H    0.146730
    15  H    0.118229
    16  H    0.108265
 Sum of Mulliken charges =  -0.00000

 Dipole moment (field-independent basis, Debye):
    X=             -0.0992    Y=              0.0318    Z=             -0.1696  Tot=              0.1991
 Quadrupole moment (field-independent basis, Debye-Ang):
   XX=            -44.7943   YY=            -50.8588   ZZ=            -44.6364
   XY=             -1.5895   XZ=             -0.5758   YZ=             -0.1633

 Normal termination of Gaussian 16 at Fri Jun 10 02:30:28 2022.
