 Gaussian 16, Revision A.03,
 Gaussian 16:  ES64L-G16RevA.03 25-Dec-2016

 ----------------------------------------------------------------------
 # Opt=(TS, CalcFC, noeigentest, Z-matrix, MaxStep=10) Field=read NoSym
 m B3LYP/Def2TZVP freq=noraman pop=none
 ----------------------------------------------------------------------

 -----------------
 ts_zmat_initalOpt
 -----------------
 Symbolic Z-matrix:
 Charge =  0 Multiplicity = 1

 SCF Done:  E(RB3LYP) =  -309.678546204     A.U. after   14 cycles
 SCF Done:  E(RB3LYP) =  -309.678558743     A.U. after   10 cycles
 Optimization completed.
    -- Stationary point found.
 Normal termination of Gaussian 16 at Fri Jun 10 02:52:12 2022.

 --------------------------------------------------------------------
 #N Geom=AllCheck Guess=TCheck SCRF=Check GenChk RB3LYP/def2TZVP Freq
 --------------------------------------------------------------------

 Structure from the checkpoint file:  "checkpoint.chk"
 -----------------
 ts_zmat_initalOpt
 -----------------
 Charge =  0 Multiplicity = 1

                          Input orientation:
 ---------------------------------------------------------------------
 Center     Atomic      Atomic             Coordinates (Angstroms)
 Number     Number       Type             X           Y           Z
 ---------------------------------------------------------------------
      1          6           0        0.000000    0.000000    0.000000
      2          6           0        0.000000    0.000000    1.405236
      3          6           0        1.217764    0.000000   -0.714032
      4          6           0       -1.034650   -0.066608   -0.977768
      5          1           0       -0.915587    0.107290    1.974473
      6          6           0        1.202369   -0.254565    2.033726
      7          6           0        2.414435   -0.372300   -0.078377
      8          6           0        0.913517    0.483355   -2.019701
      9          1           0       -1.021738   -0.892245   -1.671033
     10          1           0       -2.007473    0.402736   -0.840424
     11          6           0        2.387205   -0.483129    1.297342
     12          1           0        1.239223   -0.321640    3.113699
     13          1           0        3.340933   -0.482985   -0.629004
     14          1           0        0.445042    1.450816   -2.103434
     15          1           0        1.444585    0.151482   -2.910407
     16          1           0        3.298852   -0.711081    1.835055
 ---------------------------------------------------------------------

 SCF Done:  E(RB3LYP) =  -309.678558743     A.U. after    1 cycles

 Isotropic polarizability for W=    0.000000       98.26 Bohr**3.
 End of Minotr F.D. properties file   721 does not exist.

 ******    1 imaginary frequencies (negative Signs) ******

                      1                      2                      3
                      A                      A                      A
 Frequencies --   -626.8839               224.8606               226.1159
 Red. masses --      2.1694                 2.8765                 3.2449
 Frc consts  --      0.5023                 0.0857                 0.0978
 IR Inten    --      7.4687                 0.9399                 5.0750

                      4                      5                      6
                      A                      A                      A
 Frequencies --    397.1544               432.6373               525.9383
 Red. masses --      2.7301                 3.0026                 3.1274
 Frc consts  --      0.2537                 0.3311                 0.5097
 IR Inten    --      6.1640                 5.3532                 1.2547

                      7                      8                      9
                      A                      A                      A
 Frequencies --    577.5291               593.6214               653.8547
 Red. masses --      5.1827                 4.0366                 1.2854
 Frc consts  --      1.0185                 0.8381                 0.3238
 IR Inten    --      0.0231                 4.6419                19.8897

                     10                     11                     12
                      A                      A                      A
 Frequencies --    660.9252               745.7160               773.1634
 Red. masses --      1.0943                 3.1892                 1.2352
 Frc consts  --      0.2816                 1.0449                 0.4350
 IR Inten    --      3.2178                 5.1308                55.7365

                     13                     14                     15
                      A                      A                      A
 Frequencies --    815.7587               859.1009               879.4739
 Red. masses --      3.6661                 1.3039                 1.5282
 Frc consts  --      1.4374                 0.5670                 0.6964
 IR Inten    --      0.1732                 9.6942                14.5331

                     16                     17                     18
                      A                      A                      A
 Frequencies --    885.5518               890.9977               950.7242
 Red. masses --      3.3078                 1.5884                 1.3609
 Frc consts  --      1.5283                 0.7429                 0.7248
 IR Inten    --      1.8275                40.3314                 5.7879

                     19                     20                     21
                      A                      A                      A
 Frequencies --    986.2065              1009.6899              1016.0100
 Red. masses --      1.2933                 1.4689                 2.1578
 Frc consts  --      0.7411                 0.8823                 1.3124
 IR Inten    --      0.3866                 2.5147                 0.0031

                     22                     23                     24
                      A                      A                      A
 Frequencies --   1042.2762              1145.4370              1181.9027
 Red. masses --      1.5537                 1.4793                 1.1033
 Frc consts  --      0.9945                 1.1435                 0.9080
 IR Inten    --     12.8591                 0.6873                 0.0004

                     25                     26                     27
                      A                      A                      A
 Frequencies --   1238.6819              1324.5500              1333.8258
 Red. masses --      2.3373                 1.6674                 2.7650
 Frc consts  --      2.1129                 1.7235                 2.8984
 IR Inten    --      8.3181                 0.0702                 2.4465

                     28                     29                     30
                      A                      A                      A
 Frequencies --   1372.9066              1472.3879              1492.1148
 Red. masses --      4.1415                 1.3982                 1.5259
 Frc consts  --      4.5992                 1.7860                 2.0016
 IR Inten    --      0.0023                 6.5621                 2.8803

                     31                     32                     33
                      A                      A                      A
 Frequencies --   1507.3083              1526.1473              1585.4334
 Red. masses --      2.0902                 2.1167                 5.1528
 Frc consts  --      2.7979                 2.9046                 7.6312
 IR Inten    --      2.7652                 4.3737                 5.9426

                     34                     35                     36
                      A                      A                      A
 Frequencies --   1632.6190              3099.1664              3099.6922
 Red. masses --      5.6085                 1.0645                 1.0662
 Frc consts  --      8.8079                 6.0241                 6.0358
 IR Inten    --      1.3245                25.9158                30.3318

                     37                     38                     39
                      A                      A                      A
 Frequencies --   3166.0105              3170.5967              3182.4001
 Red. masses --      1.0860                 1.0882                 1.0932
 Frc consts  --      6.4139                 6.4452                 6.5231
 IR Inten    --      4.3598                 0.3002                21.5888

                     40                     41                     42
                      A                      A                      A
 Frequencies --   3194.0688              3231.9980              3233.3974
 Red. masses --      1.0962                 1.1016                 1.1023
 Frc consts  --      6.5890                 6.7800                 6.7898
 IR Inten    --     10.2249                 4.2268                 2.9835

 - Thermochemistry -
 -------------------
 Temperature   298.150 Kelvin.  Pressure   1.00000 Atm.
 Atom     1 has atomic number  6 and mass  12.00000

 Molecular mass:   104.06260 amu.
 Principal axes and moments of inertia in atomic units:
                           1         2         3
     Eigenvalues --   471.24622 811.904721239.33358
           X            0.49967   0.86144   0.09083
           Y           -0.15545  -0.01398   0.98774
           Z            0.85216  -0.50766   0.12693
 This molecule is an asymmetric top.
 Rotational symmetry number  1.
 Warning -- assumption of classical behavior for rotation
           may cause significant error
 Rotational temperatures (Kelvin)      0.18380     0.10668     0.06989
 Rotational constants (GHZ):           3.82972     2.22285     1.45622
    1 imaginary frequencies ignored.
 Zero-point vibrational energy     342957.1 (Joules/Mol)
                                   81.96872 (Kcal/Mol)
 Warning -- explicit consideration of   7 degrees of freedom as
           vibrations may cause significant error
 Vibrational temperatures:    323.52   325.33   571.42   622.47   756.71
          (Kelvin)            830.94   854.09   940.75   950.92  1072.92
                             1112.41  1173.69  1236.05  1265.37  1274.11
                             1281.95  1367.88  1418.93  1452.72  1461.81
                             1499.60  1648.03  1700.49  1782.19  1905.73
                             1919.08  1975.31  2118.44  2146.82  2168.68
                             2195.79  2281.09  2348.97  4459.01  4459.77
                             4555.18  4561.78  4578.76  4595.55  4650.12
                             4652.14

 Zero-point correction=                           0.130625 (Hartree/Particle)
 Thermal correction to Energy=                    0.136679
 Thermal correction to Enthalpy=                  0.137623
 Thermal correction to Gibbs Free Energy=         0.100833
 Sum of electronic and zero-point Energies=           -309.547933
 Sum of electronic and thermal Energies=              -309.541880
 Sum of electronic and thermal Enthalpies=            -309.540935
 Sum of electronic and thermal Free Energies=         -309.577726

                     E (Thermal)             CV                S
                      KCal/Mol        Cal/Mol-Kelvin    Cal/Mol-Kelvin
 Total                   85.767             25.087             77.432
 Electronic               0.000              0.000              0.000
 Translational            0.889              2.981             39.837
 Rotational               0.889              2.981             27.652
 Vibrational             83.990             19.125              9.943
 Vibration     1          0.650              1.803              1.920
 Vibration     2          0.650              1.801              1.910
 Vibration     3          0.764              1.476              0.973
 Vibration     4          0.794              1.399              0.850
 Vibration     5          0.881              1.193              0.596
 Vibration     6          0.934              1.080              0.490
 Vibration     7          0.951              1.045              0.461

 Optimization completed.
    -- Stationary point found.
 Normal termination of Gaussian 16 at Fri Jun 10 02:58:23 2022.
