 Gaussian 16, Revision A.03,
 Gaussian 16:  ES64L-G16RevA.03 25-Dec-2016

 --------------------------
 # sp B3LYP/Def2TZVP NoSymm
 --------------------------

 ----------------------------------
 int_initalOptXYZ_aligned_AlignedSp
 ----------------------------------
 Symbolic Z-matrix:
 Charge =  0 Multiplicity = 1

                          Input orientation:
 ---------------------------------------------------------------------
 Center     Atomic      Atomic             Coordinates (Angstroms)
 Number     Number       Type             X           Y           Z
 ---------------------------------------------------------------------
      1          6           0        0.501394    0.702303   -0.890572
      2          6           0        0.413696   -0.866022   -0.669198
      3          6           0       -0.740690    1.459194   -0.536916
      4          6           0        1.206375   -0.679643    0.643370
      5          6           0        1.663721    0.708094    0.135199
      6          6           0       -0.904926   -1.561148   -0.700754
      7          6           0       -1.489172   -2.185997    0.314785
      8          6           0       -0.897392    2.352493    0.432690
      9          1           0       -1.409279   -1.555615   -1.665259
     10          1           0       -2.445142   -2.680178    0.197203
     11          1           0       -1.036474   -2.232292    1.297857
     12          1           0        0.544503   -0.586641    1.504557
     13          1           0        1.975685   -1.417749    0.869850
     14          1           0        2.630536    0.661102   -0.366971
     15          1           0        1.695404    1.519942    0.859462
     16          1           0        0.785493    0.971528   -1.912058
     17          1           0        1.062743   -1.327694   -1.420929
     18          1           0       -0.096563    2.628473    1.107134
     19          1           0       -1.596028    1.240692   -1.171956
     20          1           0       -1.847280    2.849156    0.584508
 ---------------------------------------------------------------------

 SCF Done:  E(RB3LYP) =  -312.116802521     A.U. after   13 cycles

 Alpha  occ. eigenvalues --  -10.18245 -10.18171 -10.17374 -10.17350 -10.16886
 Alpha  occ. eigenvalues --  -10.16703 -10.16162 -10.16074  -0.86026  -0.77607
 Alpha  occ. eigenvalues --   -0.75962  -0.67169  -0.66042  -0.59491  -0.55949
 Alpha  occ. eigenvalues --   -0.51312  -0.49607  -0.48263  -0.45706  -0.44642
 Alpha  occ. eigenvalues --   -0.40960  -0.39706  -0.36995  -0.36555  -0.34887
 Alpha  occ. eigenvalues --   -0.32688  -0.32523  -0.30629  -0.26335  -0.25433
 Alpha virt. eigenvalues --   -0.00015   0.00790   0.03671   0.04979   0.06218
 Alpha virt. eigenvalues --    0.06789   0.08623   0.09388   0.09762   0.11098
 Alpha virt. eigenvalues --    0.12636   0.13060   0.13914   0.14354   0.14583

 Mulliken charges:
               1
     1  C    0.041419
     2  C    0.030210
     3  C   -0.147371
     4  C   -0.177094
     5  C   -0.192504
     6  C   -0.164225
     7  C   -0.247481
     8  C   -0.258622
     9  H    0.099775
    10  H    0.109092
    11  H    0.104595
    12  H    0.086632
    13  H    0.092174
    14  H    0.086224
    15  H    0.088450
    16  H    0.081047
    17  H    0.068656
    18  H    0.098731
    19  H    0.091050
    20  H    0.109241
 Sum of Mulliken charges =  -0.00000

 Dipole moment (field-independent basis, Debye):
    X=              0.4039    Y=             -0.0914    Z=             -0.3558  Tot=              0.5459
 Quadrupole moment (field-independent basis, Debye-Ang):
   XX=            -49.5792   YY=            -53.7196   ZZ=            -49.1831
   XY=              0.0723   XZ=              0.3609   YZ=              0.8284

 Normal termination of Gaussian 16 at Fri Jun 10 22:16:08 2022.
