 Gaussian 16, Revision A.03,
 Gaussian 16:  ES64L-G16RevA.03 25-Dec-2016

 --------------------------------------------------------------------
 # Opt=(TS, CalcFC, noeigentest) B3LYP/Def2TZVP freq=noraman pop=none
 --------------------------------------------------------------------

 ------------
 ts_initalOpt
 ------------
 Symbolic Z-matrix:
 Charge =  0 Multiplicity = 1

 SCF Done:  E(RB3LYP) =  -312.079787613     A.U. after   14 cycles
 Optimization completed.
    -- Stationary point found.
 Normal termination of Gaussian 16 at Fri Jun 10 22:01:51 2022.

 --------------------------------------------------------------------
 #N Geom=AllCheck Guess=TCheck SCRF=Check GenChk RB3LYP/def2TZVP Freq
 --------------------------------------------------------------------

 Structure from the checkpoint file:  "checkpoint.chk"
 ------------
 ts_initalOpt
 ------------
 Charge =  0 Multiplicity = 1

                         Standard orientation:
 ---------------------------------------------------------------------
 Center     Atomic      Atomic             Coordinates (Angstroms)
 Number     Number       Type             X           Y           Z
 ---------------------------------------------------------------------
      1          6           0        1.525842    0.769594   -0.556985
      2          6           0        1.525834   -0.769603   -0.556987
      3          6           0        0.654722   -1.092996    0.650832
      4          6           0        0.654729    1.092992    0.650833
      5          6           0       -0.686313    1.455203    0.566786
      6          6           0       -1.495902    1.220775   -0.521834
      7          6           0       -0.686321   -1.455198    0.566787
      8          6           0       -1.495911   -1.220768   -0.521832
      9          1           0       -1.084305   -1.117496   -1.514941
     10          1           0       -2.550173   -1.458000   -0.475884
     11          1           0       -1.172560   -1.723793    1.500563
     12          1           0        1.175151   -1.338612    1.569265
     13          1           0        2.526189   -1.189428   -0.436131
     14          1           0        1.115630   -1.192976   -1.475672
     15          1           0        2.526200    1.189411   -0.436125
     16          1           0        1.115644    1.192973   -1.475670
     17          1           0        1.175159    1.338605    1.569267
     18          1           0       -1.172552    1.723800    1.500561
     19          1           0       -1.084295    1.117500   -1.514942
     20          1           0       -2.550163    1.458015   -0.475888
 ---------------------------------------------------------------------

 SCF Done:  E(RB3LYP) =  -312.079787613     A.U. after    1 cycles

 Isotropic polarizability for W=    0.000000      102.33 Bohr**3.
 End of Minotr F.D. properties file   721 does not exist.

 ******    1 imaginary frequencies (negative Signs) ******

                      1                      2                      3
                      A                      A                      A
 Frequencies --   -429.5095                59.8181               261.3969
 Red. masses --      8.1989                 2.0986                 4.7536
 Frc consts  --      0.8912                 0.0044                 0.1914
 IR Inten    --      2.3730                 0.0093                 0.0361

                      4                      5                      6
                      A                      A                      A
 Frequencies --    262.6438               286.6612               303.5711
 Red. masses --      2.5061                 2.9627                 3.2795
 Frc consts  --      0.1019                 0.1434                 0.1781
 IR Inten    --      0.7842                 0.2046                 0.0632

                      7                      8                      9
                      A                      A                      A
 Frequencies --    371.1951               423.2283               530.2904
 Red. masses --      2.3363                 2.2893                 2.2836
 Frc consts  --      0.1897                 0.2416                 0.3784
 IR Inten    --      1.2713                 1.4650                 2.6212

                     10                     11                     12
                      A                      A                      A
 Frequencies --    573.6571               659.7829               688.1823
 Red. masses --      2.0415                 2.6575                 1.3282
 Frc consts  --      0.3958                 0.6816                 0.3706
 IR Inten    --      0.4152                 3.6824                 0.1479

                     13                     14                     15
                      A                      A                      A
 Frequencies --    721.0801               764.5569               787.1389
 Red. masses --      1.3183                 1.1024                 1.3213
 Frc consts  --      0.4039                 0.3797                 0.4824
 IR Inten    --     23.5030                 4.8812                 7.4407

                     16                     17                     18
                      A                      A                      A
 Frequencies --    863.1643               898.7844               914.2688
 Red. masses --      1.4936                 1.1702                 2.3766
 Frc consts  --      0.6556                 0.5569                 1.1705
 IR Inten    --     11.6554                 2.5957                 0.8769

                     19                     20                     21
                      A                      A                      A
 Frequencies --    943.6617               951.4956               994.4956
 Red. masses --      1.4752                 1.5272                 1.5157
 Frc consts  --      0.7740                 0.8147                 0.8832
 IR Inten    --      0.0195                10.5996                 5.0773

                     22                     23                     24
                      A                      A                      A
 Frequencies --    995.9185              1012.9850              1023.6059
 Red. masses --      1.7838                 1.4915                 1.2550
 Frc consts  --      1.0424                 0.9017                 0.7748
 IR Inten    --      0.6379                 0.2968                22.1534

                     25                     26                     27
                      A                      A                      A
 Frequencies --   1042.2346              1089.5408              1147.8919
 Red. masses --      1.4147                 1.9434                 1.2911
 Frc consts  --      0.9054                 1.3593                 1.0023
 IR Inten    --      0.1556                 5.6780                 0.2445

                     28                     29                     30
                      A                      A                      A
 Frequencies --   1181.6305              1219.7678              1263.9555
 Red. masses --      1.6052                 1.5214                 1.1333
 Frc consts  --      1.3206                 1.3337                 1.0668
 IR Inten    --      0.4663                 0.2058                 0.0508

                     31                     32                     33
                      A                      A                      A
 Frequencies --   1290.0376              1295.3942              1301.3267
 Red. masses --      1.4863                 1.4379                 1.3306
 Frc consts  --      1.4573                 1.4216                 1.3276
 IR Inten    --      0.0442                 0.7654                 1.0823

                     34                     35                     36
                      A                      A                      A
 Frequencies --   1323.5393              1430.0358              1430.4577
 Red. masses --      1.4106                 1.3549                 1.3104
 Frc consts  --      1.4559                 1.6324                 1.5799
 IR Inten    --      2.9442                 0.0187                 3.6521

                     37                     38                     39
                      A                      A                      A
 Frequencies --   1487.5404              1496.2370              1506.6494
 Red. masses --      1.1642                 2.2886                 1.5548
 Frc consts  --      1.5179                 3.0187                 2.0795
 IR Inten    --      2.1488                 4.1893                 0.0062

                     40                     41                     42
                      A                      A                      A
 Frequencies --   1509.8330              1560.3876              1611.8467
 Red. masses --      1.1248                 1.8883                 3.7440
 Frc consts  --      1.5107                 2.7089                 5.7311
 IR Inten    --     15.2462                 2.2096                 4.4968

                     43                     44                     45
                      A                      A                      A
 Frequencies --   3038.4858              3046.6237              3066.2021
 Red. masses --      1.0581                 1.0598                 1.1052
 Frc consts  --      5.7556                 5.7959                 6.1222
 IR Inten    --     34.5978                66.4721                 0.0399

                     46                     47                     48
                      A                      A                      A
 Frequencies --   3087.6418              3125.5091              3128.1487
 Red. masses --      1.1061                 1.0849                 1.0856
 Frc consts  --      6.2127                 6.2443                 6.2587
 IR Inten    --     29.3074                 5.8944                17.5142

                     49                     50                     51
                      A                      A                      A
 Frequencies --   3154.4709              3160.2551              3160.8952
 Red. masses --      1.0623                 1.0874                 1.0643
 Frc consts  --      6.2283                 6.3984                 6.2651
 IR Inten    --      0.0720                 7.8248                33.6646

                     52                     53                     54
                      A                      A                      A
 Frequencies --   3166.0990              3233.1025              3244.1831
 Red. masses --      1.0826                 1.1166                 1.1142
 Frc consts  --      6.3938                 6.8766                 6.9094
 IR Inten    --     10.3318                 0.6228                18.2960

 - Thermochemistry -
 -------------------
 Temperature   298.150 Kelvin.  Pressure   1.00000 Atm.
 Atom     1 has atomic number  6 and mass  12.00000

 Molecular mass:   108.09390 amu.
 Principal axes and moments of inertia in atomic units:
                           1         2         3
     Eigenvalues --   724.16490 781.238691139.81264
           X            0.99999  -0.00000   0.00328
           Y            0.00000   1.00000   0.00000
           Z           -0.00328  -0.00000   0.99999
 This molecule is an asymmetric top.
 Rotational symmetry number  1.
 Warning -- assumption of classical behavior for rotation
           may cause significant error
 Rotational temperatures (Kelvin)      0.11961     0.11087     0.07599
 Rotational constants (GHZ):           2.49217     2.31010     1.58337
    1 imaginary frequencies ignored.
 Zero-point vibrational energy     461109.6 (Joules/Mol)
                                  110.20784 (Kcal/Mol)
 Warning -- explicit consideration of   9 degrees of freedom as
           vibrations may cause significant error
 Vibrational temperatures:     86.06   376.09   377.89   412.44   436.77
          (Kelvin)            534.07   608.93   762.97   825.36   949.28
                              990.14  1037.47  1100.03  1132.52  1241.90
                             1293.15  1315.43  1357.72  1368.99  1430.86
                             1432.90  1457.46  1472.74  1499.54  1567.61
                             1651.56  1700.10  1754.97  1818.55  1856.08
                             1863.78  1872.32  1904.28  2057.50  2058.11
                             2140.24  2152.75  2167.73  2172.31  2245.05
                             2319.09  4371.70  4383.41  4411.58  4442.43
                             4496.91  4500.71  4538.58  4546.90  4547.82
                             4555.31  4651.71  4667.66

 Zero-point correction=                           0.175627 (Hartree/Particle)
 Thermal correction to Energy=                    0.183203
 Thermal correction to Enthalpy=                  0.184148
 Thermal correction to Gibbs Free Energy=         0.143972
 Sum of electronic and zero-point Energies=           -311.904160
 Sum of electronic and thermal Energies=              -311.896584
 Sum of electronic and thermal Enthalpies=            -311.895640
 Sum of electronic and thermal Free Energies=         -311.935815

                     E (Thermal)             CV                S
                      KCal/Mol        Cal/Mol-Kelvin    Cal/Mol-Kelvin
 Total                  114.962             30.462             84.556
 Electronic               0.000              0.000              0.000
 Translational            0.889              2.981             39.950
 Rotational               0.889              2.981             27.958
 Vibrational            113.184             24.501             16.649
 Vibration     1          0.597              1.973              4.463
 Vibration     2          0.669              1.743              1.652
 Vibration     3          0.670              1.741              1.644
 Vibration     4          0.684              1.698              1.494
 Vibration     5          0.695              1.667              1.397
 Vibration     6          0.743              1.531              1.075
 Vibration     7          0.785              1.420              0.881
 Vibration     8          0.885              1.183              0.587
 Vibration     9          0.930              1.088              0.497

 Optimization completed.
    -- Stationary point found.
 Normal termination of Gaussian 16 at Fri Jun 10 22:11:14 2022.
