 Gaussian 16, Revision A.03,
 Gaussian 16:  ES64L-G16RevA.03 25-Dec-2016

 ----------------------------------------------------------------------
 # Opt=(Z-matrix, MaxStep=10) B3LYP/Def2TZVP geom=allcheckpoint guess=r
 ead Field=read NoSymm freq=noraman pop=none
 ----------------------------------------------------------------------

 Structure from the checkpoint file:  "checkpoint.chk"
 ------------------
 int_zmat_initalOpt
 ------------------
 Charge =  0 Multiplicity = 1

 SCF Done:  E(RB3LYP) =  -309.746569732     A.U. after    9 cycles
 SCF Done:  E(RB3LYP) =  -309.746572574     A.U. after    7 cycles
 SCF Done:  E(RB3LYP) =  -309.746572717     A.U. after    6 cycles
 Optimization completed.
    -- Stationary point found.
 Normal termination of Gaussian 16 at Fri Jun 10 03:47:02 2022.

 --------------------------------------------------------------------
 #N Geom=AllCheck Guess=TCheck SCRF=Check GenChk RB3LYP/def2TZVP Freq
 --------------------------------------------------------------------

 Structure from the checkpoint file:  "checkpoint.chk"
 ------------------
 int_zmat_initalOpt
 ------------------
 Charge =  0 Multiplicity = 1

                          Input orientation:
 ---------------------------------------------------------------------
 Center     Atomic      Atomic             Coordinates (Angstroms)
 Number     Number       Type             X           Y           Z
 ---------------------------------------------------------------------
      1          6           0        0.000000    0.000000    0.000000
      2          6           0        0.000000    0.000000    1.383060
      3          6           0        1.172736    0.000000   -0.742890
      4          6           0       -0.893095   -0.000028   -1.230460
      5          1           0       -0.903005    0.000009    1.981204
      6          6           0        1.257521   -0.000040    1.994214
      7          6           0        2.423181   -0.000057   -0.151923
      8          6           0        0.441817    0.000154   -2.076088
      9          1           0       -1.516662   -0.888630   -1.366423
     10          1           0       -1.516855    0.888455   -1.366305
     11          6           0        2.438420   -0.000076    1.246164
     12          1           0        1.326007   -0.000048    3.074417
     13          1           0        3.349820   -0.000055   -0.712763
     14          1           0        0.585320    0.888802   -2.697905
     15          1           0        0.585423   -0.888291   -2.698170
     16          1           0        3.385770   -0.000103    1.769670
 ---------------------------------------------------------------------

 SCF Done:  E(RB3LYP) =  -309.746572717     A.U. after    1 cycles

 Isotropic polarizability for W=    0.000000       88.58 Bohr**3.
 End of Minotr F.D. properties file   721 does not exist.

                      1                      2                      3
                      A                      A                      A
 Frequencies --    193.0954               211.1318               401.4923
 Red. masses --      1.8879                 3.2028                 2.7740
 Frc consts  --      0.0415                 0.0841                 0.2635
 IR Inten    --      0.0004                 8.2288                 5.5455

                      4                      5                      6
                      A                      A                      A
 Frequencies --    415.6899               486.6830               551.5175
 Red. masses --      3.3807                 2.9053                 5.7673
 Frc consts  --      0.3442                 0.4054                 1.0336
 IR Inten    --      2.1123                 0.0000                 0.0563

                      7                      8                      9
                      A                      A                      A
 Frequencies --    644.8275               715.0866               741.2957
 Red. masses --      6.3141                 3.4588                 1.1380
 Frc consts  --      1.5468                 1.0420                 0.3685
 IR Inten    --      0.0025                 0.0000                37.8050

                     10                     11                     12
                      A                      A                      A
 Frequencies --    790.2553               805.9903               863.7011
 Red. masses --      3.7902                 1.1812                 4.4180
 Frc consts  --      1.3946                 0.4521                 1.9418
 IR Inten    --      2.0972                23.2295                 0.6246

                     13                     14                     15
                      A                      A                      A
 Frequencies --    888.0326               900.9897               956.1389
 Red. masses --      1.2528                 3.4292                 1.3514
 Frc consts  --      0.5821                 1.6402                 0.7279
 IR Inten    --      0.0000                 1.3168                 0.0000

                     16                     17                     18
                      A                      A                      A
 Frequencies --   1016.6622              1024.3601              1045.1181
 Red. masses --      1.3115                 2.1666                 1.9573
 Frc consts  --      0.7987                 1.3395                 1.2596
 IR Inten    --      0.0000                 1.1061                 0.0000

                     19                     20                     21
                      A                      A                      A
 Frequencies --   1084.8046              1103.6963              1153.8627
 Red. masses --      1.1777                 3.3368                 1.6328
 Frc consts  --      0.8166                 2.3949                 1.2809
 IR Inten    --      0.7923                 0.2286                 1.7903

                     22                     23                     24
                      A                      A                      A
 Frequencies --   1178.3150              1185.1443              1196.2955
 Red. masses --      1.1479                 1.2405                 1.5452
 Frc consts  --      0.9390                 1.0266                 1.3029
 IR Inten    --      0.0000                 0.2465                 2.2797

                     25                     26                     27
                      A                      A                      A
 Frequencies --   1223.3321              1225.1803              1311.4281
 Red. masses --      2.6578                 1.4870                 1.5637
 Frc consts  --      2.3434                 1.3151                 1.5845
 IR Inten    --      1.6229                 6.6540                 1.6315

                     28                     29                     30
                      A                      A                      A
 Frequencies --   1363.9001              1466.5600              1480.0312
 Red. masses --      4.2504                 1.0857                 1.3327
 Frc consts  --      4.6585                 1.3758                 1.7200
 IR Inten    --      2.3879                 0.0001                 0.5328

                     31                     32                     33
                      A                      A                      A
 Frequencies --   1499.5285              1500.0962              1632.4337
 Red. masses --      2.2272                 1.9006                 6.5393
 Frc consts  --      2.9506                 2.5198                10.2672
 IR Inten    --      4.4036                18.0397                 0.3612

                     34                     35                     36
                      A                      A                      A
 Frequencies --   1646.5568              3009.8062              3016.6952
 Red. masses --      6.6329                 1.0546                 1.0570
 Frc consts  --     10.5951                 5.6287                 5.6676
 IR Inten    --      0.0011                74.0247               163.1507

                     37                     38                     39
                      A                      A                      A
 Frequencies --   3038.5591              3056.3159              3172.9759
 Red. masses --      1.1081                 1.1069                 1.0886
 Frc consts  --      6.0277                 6.0921                 6.4576
 IR Inten    --      0.0008                84.5095                15.5528

                     40                     41                     42
                      A                      A                      A
 Frequencies --   3175.6559              3189.9576              3201.3901
 Red. masses --      1.0896                 1.0921                 1.0961
 Frc consts  --      6.4742                 6.5475                 6.6189
 IR Inten    --      0.0006                 6.4962                 0.4490

 - Thermochemistry -
 -------------------
 Temperature   298.150 Kelvin.  Pressure   1.00000 Atm.
 Atom     1 has atomic number  6 and mass  12.00000

 Molecular mass:   104.06260 amu.
 Principal axes and moments of inertia in atomic units:
                           1         2         3
     Eigenvalues --   402.91793 863.055961243.24223
           X            0.53513   0.84477   0.00001
           Y           -0.00003   0.00001   1.00000
           Z            0.84477  -0.53513   0.00003
 This molecule is an asymmetric top.
 Rotational symmetry number  1.
 Rotational temperatures (Kelvin)      0.21497     0.10036     0.06967
 Rotational constants (GHZ):           4.47918     2.09111     1.45164
 Zero-point vibrational energy     351490.3 (Joules/Mol)
                                   84.00820 (Kcal/Mol)
 Warning -- explicit consideration of   6 degrees of freedom as
           vibrations may cause significant error
 Vibrational temperatures:    277.82   303.77   577.66   598.09   700.23
          (Kelvin)            793.51   927.76  1028.85  1066.56  1137.00
                             1159.64  1242.67  1277.68  1296.32  1375.67
                             1462.75  1473.83  1503.69  1560.79  1587.97
                             1660.15  1695.33  1705.16  1721.20  1760.10
                             1762.76  1886.85  1962.35  2110.05  2129.43
                             2157.49  2158.30  2348.71  2369.03  4330.44
                             4340.35  4371.81  4397.36  4565.20  4569.06
                             4589.64  4606.09

 Zero-point correction=                           0.133876 (Hartree/Particle)
 Thermal correction to Energy=                    0.139862
 Thermal correction to Enthalpy=                  0.140806
 Thermal correction to Gibbs Free Energy=         0.104043
 Sum of electronic and zero-point Energies=           -309.612697
 Sum of electronic and thermal Energies=              -309.606710
 Sum of electronic and thermal Enthalpies=            -309.605766
 Sum of electronic and thermal Free Energies=         -309.642529

                     E (Thermal)             CV                S
                      KCal/Mol        Cal/Mol-Kelvin    Cal/Mol-Kelvin
 Total                   87.765             24.285             77.374
 Electronic               0.000              0.000              0.000
 Translational            0.889              2.981             39.837
 Rotational               0.889              2.981             27.560
 Vibrational             85.987             18.324              9.977
 Vibration     1          0.635              1.849              2.198
 Vibration     2          0.643              1.824              2.034
 Vibration     3          0.767              1.467              0.957
 Vibration     4          0.779              1.436              0.907
 Vibration     5          0.843              1.280              0.692
 Vibration     6          0.907              1.136              0.541

 Optimization completed.
    -- Stationary point found.
 Normal termination of Gaussian 16 at Fri Jun 10 03:53:21 2022.
