 Gaussian 16, Revision A.03,
 Gaussian 16:  ES64L-G16RevA.03 25-Dec-2016

 ----------------------------------------------------------------------
 # Opt=(TS, CalcFC, noeigentest, Z-matrix, MaxStep=10) Field=read NoSym
 m B3LYP/Def2TZVP freq=noraman pop=none
 ----------------------------------------------------------------------

 -----------------
 ts_zmat_initalOpt
 -----------------
 Symbolic Z-matrix:
 Charge =  0 Multiplicity = 1

 SCF Done:  E(RB3LYP) =  -269.392753624     A.U. after   14 cycles
 SCF Done:  E(RB3LYP) =  -269.392772150     A.U. after   12 cycles
 Optimization completed.
    -- Stationary point found.
 Normal termination of Gaussian 16 at Fri Jun 10 11:09:18 2022.

 --------------------------------------------------------------------
 #N Geom=AllCheck Guess=TCheck SCRF=Check GenChk RB3LYP/def2TZVP Freq
 --------------------------------------------------------------------

 Structure from the checkpoint file:  "checkpoint.chk"
 -----------------
 ts_zmat_initalOpt
 -----------------
 Charge =  0 Multiplicity = 1

                          Input orientation:
 ---------------------------------------------------------------------
 Center     Atomic      Atomic             Coordinates (Angstroms)
 Number     Number       Type             X           Y           Z
 ---------------------------------------------------------------------
      1          6           0        0.000000    0.000000    0.000000
      2          6           0        0.000000    0.000000    1.387181
      3          6           0        1.203074    0.000000   -0.717103
      4          1           0       -0.922270    0.176797   -0.544813
      5          1           0       -0.801918    0.468980    1.943523
      6          1           0        1.182329    0.040460   -1.797552
      7          6           0        2.371896    0.479829   -0.091444
      8          6           0        1.157210   -0.440514    2.024071
      9          1           0        3.062409    1.035329   -0.737909
     10          8           0        2.653879    0.480999    1.136631
     11          1           0        1.329935   -0.224606    3.070810
     12          1           0        1.639598   -1.334643    1.654128
 ---------------------------------------------------------------------

 SCF Done:  E(RB3LYP) =  -269.392772150     A.U. after    1 cycles

 Isotropic polarizability for W=    0.000000       65.24 Bohr**3.
 End of Minotr F.D. properties file   721 does not exist.

 ******    1 imaginary frequencies (negative Signs) ******

                      1                      2                      3
                      A                      A                      A
 Frequencies --   -512.4652               243.0623               375.8980
 Red. masses --      5.6851                 2.8972                 2.5500
 Frc consts  --      0.8797                 0.1008                 0.2123
 IR Inten    --     44.2773                 4.6331                 9.5062

                      4                      5                      6
                      A                      A                      A
 Frequencies --    420.2122               571.3875               589.3939
 Red. masses --      4.3518                 2.6879                 3.7517
 Frc consts  --      0.4527                 0.5170                 0.7679
 IR Inten    --      4.5642                23.9029                 2.5644

                      7                      8                      9
                      A                      A                      A
 Frequencies --    720.7197               788.1041               884.2124
 Red. masses --      1.2464                 1.3778                 2.1069
 Frc consts  --      0.3814                 0.5042                 0.9705
 IR Inten    --     49.2681                28.3567                24.5348

                     10                     11                     12
                      A                      A                      A
 Frequencies --    953.2892               963.7984               979.4652
 Red. masses --      1.5599                 1.4323                 1.4589
 Frc consts  --      0.8352                 0.7839                 0.8246
 IR Inten    --     47.9006                 5.0393                 3.3117

                     13                     14                     15
                      A                      A                      A
 Frequencies --   1016.8878              1042.4737              1099.5680
 Red. masses --      3.5958                 1.7649                 1.3280
 Frc consts  --      2.1908                 1.1301                 0.9460
 IR Inten    --     16.9087                 4.6471                18.5835

                     16                     17                     18
                      A                      A                      A
 Frequencies --   1113.6493              1181.8457              1248.1888
 Red. masses --      1.5555                 1.2180                 1.3684
 Frc consts  --      1.1366                 1.0024                 1.2561
 IR Inten    --      1.0836                13.0966                 2.7553

                     19                     20                     21
                      A                      A                      A
 Frequencies --   1348.8731              1403.2299              1441.4080
 Red. masses --      1.3647                 1.8668                 1.8073
 Frc consts  --      1.4629                 2.1657                 2.2124
 IR Inten    --     42.1881                59.6204                62.7318

                     22                     23                     24
                      A                      A                      A
 Frequencies --   1496.8972              1555.0925              1617.5086
 Red. masses --      1.7392                 2.2662                 5.6545
 Frc consts  --      2.2960                 3.2289                 8.7163
 IR Inten    --      5.1588                22.7002               120.9979

                     25                     26                     27
                      A                      A                      A
 Frequencies --   3025.4015              3141.3146              3146.6288
 Red. masses --      1.0852                 1.0573                 1.0873
 Frc consts  --      5.8521                 6.1470                 6.3429
 IR Inten    --     39.2863                16.4285                 8.2527

                     28                     29                     30
                      A                      A                      A
 Frequencies --   3176.9791              3194.4757              3225.7689
 Red. masses --      1.0920                 1.0914                 1.1177
 Frc consts  --      6.4941                 6.5620                 6.8524
 IR Inten    --      5.4580                 7.0465                 5.5559

 - Thermochemistry -
 -------------------
 Temperature   298.150 Kelvin.  Pressure   1.00000 Atm.
 Atom     1 has atomic number  6 and mass  12.00000

 Molecular mass:    82.04186 amu.
 Principal axes and moments of inertia in atomic units:
                           1         2         3
     Eigenvalues --   325.57078 386.07438 665.95974
           X            0.92763   0.32450  -0.18493
           Y            0.21573  -0.06133   0.97452
           Z           -0.30489   0.94390   0.12690
 This molecule is an asymmetric top.
 Rotational symmetry number  1.
 Rotational temperatures (Kelvin)      0.26604     0.22435     0.13006
 Rotational constants (GHZ):           5.54331     4.67459     2.70999
    1 imaginary frequencies ignored.
 Zero-point vibrational energy     251010.8 (Joules/Mol)
                                   59.99303 (Kcal/Mol)
 Warning -- explicit consideration of   5 degrees of freedom as
           vibrations may cause significant error
 Vibrational temperatures:    349.71   540.83   604.59   822.10   848.01
          (Kelvin)           1036.95  1133.91  1272.18  1371.57  1386.69
                             1409.23  1463.07  1499.89  1582.03  1602.29
                             1700.41  1795.87  1940.73  2018.93  2073.86
                             2153.70  2237.43  2327.23  4352.88  4519.65
                             4527.30  4570.96  4596.14  4641.16

 Zero-point correction=                           0.095605 (Hartree/Particle)
 Thermal correction to Energy=                    0.100451
 Thermal correction to Enthalpy=                  0.101395
 Thermal correction to Gibbs Free Energy=         0.067578
 Sum of electronic and zero-point Energies=           -269.297167
 Sum of electronic and thermal Energies=              -269.292321
 Sum of electronic and thermal Enthalpies=            -269.291377
 Sum of electronic and thermal Free Energies=         -269.325194

                     E (Thermal)             CV                S
                      KCal/Mol        Cal/Mol-Kelvin    Cal/Mol-Kelvin
 Total                   63.034             18.207             71.175
 Electronic               0.000              0.000              0.000
 Translational            0.889              2.981             39.128
 Rotational               0.889              2.981             25.929
 Vibrational             61.256             12.245              6.118
 Vibration     1          0.659              1.774              1.780
 Vibration     2          0.747              1.521              1.056
 Vibration     3          0.783              1.426              0.891
 Vibration     4          0.928              1.093              0.502
 Vibration     5          0.947              1.054              0.468

 Optimization completed.
    -- Stationary point found.
 Normal termination of Gaussian 16 at Fri Jun 10 11:11:55 2022.
