 Gaussian 16, Revision A.03,
 Gaussian 16:  ES64L-G16RevA.03 25-Dec-2016

 --------------------------------------------------------------------
 # Opt=(TS, CalcFC, noeigentest) B3LYP/Def2TZVP freq=noraman pop=none
 --------------------------------------------------------------------

 ------------
 ts_initalOpt
 ------------
 Symbolic Z-matrix:
 Charge =  0 Multiplicity = 1

 SCF Done:  E(RB3LYP) =  -822.501782282     A.U. after   18 cycles
 Optimization completed.
    -- Stationary point found.
 Normal termination of Gaussian 16 at Fri Jun 10 10:46:51 2022.

 --------------------------------------------------------------------
 #N Geom=AllCheck Guess=TCheck SCRF=Check GenChk RB3LYP/def2TZVP Freq
 --------------------------------------------------------------------

 Structure from the checkpoint file:  "checkpoint.chk"
 ------------
 ts_initalOpt
 ------------
 Charge =  0 Multiplicity = 1

                         Standard orientation:
 ---------------------------------------------------------------------
 Center     Atomic      Atomic             Coordinates (Angstroms)
 Number     Number       Type             X           Y           Z
 ---------------------------------------------------------------------
      1          6           0        2.689401    1.086251   -0.690343
      2          6           0        2.997476   -0.246516   -0.918450
      3          1           0        3.429557    1.772892   -0.305763
      4          1           0        1.827154    1.533929   -1.163239
      5          6           0        1.987544   -1.133040   -1.203070
      6          1           0        3.947622   -0.627732   -0.560242
      7         16           0        0.869444   -0.503237    1.074548
      8          1           0        2.157685   -2.201635   -1.200762
      9          1           0        1.067026   -0.797719   -1.661759
     10          8           0        1.631575    0.830044    1.062620
     11          6           0       -0.748087   -0.158333    0.411813
     12          6           0       -1.149335    1.142160    0.117048
     13          1           0       -0.462268    1.959518    0.290577
     14          6           0       -2.429227    1.369803   -0.375884
     15          1           0       -2.741391    2.381362   -0.604395
     16          6           0       -3.309943    0.310577   -0.566618
     17          1           0       -4.306592    0.493637   -0.947055
     18          6           0       -2.906278   -0.987002   -0.262461
     19          1           0       -3.588127   -1.815681   -0.407033
     20          6           0       -1.628232   -1.225563    0.223184
     21          1           0       -1.314283   -2.237162    0.454635
 ---------------------------------------------------------------------

 SCF Done:  E(RB3LYP) =  -822.501782282     A.U. after    3 cycles

 Isotropic polarizability for W=    0.000000      143.32 Bohr**3.
 End of Minotr F.D. properties file   721 does not exist.

 ******    1 imaginary frequencies (negative Signs) ******

                      1                      2                      3
                      A                      A                      A
 Frequencies --   -276.7097                50.8966                67.3135
 Red. masses --      7.1004                 3.9195                 5.0852
 Frc consts  --      0.3203                 0.0060                 0.0136
 IR Inten    --     34.0674                 0.1259                 0.2826

                      4                      5                      6
                      A                      A                      A
 Frequencies --     95.9048               187.7466               212.8290
 Red. masses --      2.9107                 4.8766                 5.3993
 Frc consts  --      0.0158                 0.1013                 0.1441
 IR Inten    --      0.1727                 2.8334                 5.0689

                      7                      8                      9
                      A                      A                      A
 Frequencies --    240.8090               317.0999               382.2095
 Red. masses --      7.2789                 4.8538                 2.4690
 Frc consts  --      0.2487                 0.2876                 0.2125
 IR Inten    --      3.6501                 2.1806                 2.4985

                     10                     11                     12
                      A                      A                      A
 Frequencies --    406.2068               411.4775               455.9625
 Red. masses --      6.8790                 3.0000                 1.9701
 Frc consts  --      0.6688                 0.2993                 0.2413
 IR Inten    --      5.7208                 0.3095                 4.1348

                     13                     14                     15
                      A                      A                      A
 Frequencies --    474.6488               494.2270               630.2564
 Red. masses --      6.3396                 4.3969                 6.4404
 Frc consts  --      0.8415                 0.6328                 1.5073
 IR Inten    --     11.4164                 9.3855                 0.0171

                     16                     17                     18
                      A                      A                      A
 Frequencies --    694.0289               706.5263               709.3056
 Red. masses --      1.3741                 5.8166                 2.2141
 Frc consts  --      0.3900                 1.7107                 0.6563
 IR Inten    --      8.9907                 1.7160                26.8276

                     19                     20                     21
                      A                      A                      A
 Frequencies --    759.8606               807.2438               860.5240
 Red. masses --      1.5815                 1.1090                 1.2502
 Frc consts  --      0.5380                 0.4258                 0.5454
 IR Inten    --     42.3240                 0.8424                 0.1571

                     22                     23                     24
                      A                      A                      A
 Frequencies --    899.7890               925.7273               942.2810
 Red. masses --      2.2748                 1.3839                 1.1382
 Frc consts  --      1.0851                 0.6987                 0.5954
 IR Inten    --     33.0625                 2.8018                 0.4764

                     25                     26                     27
                      A                      A                      A
 Frequencies --    964.7582               969.7848               988.5618
 Red. masses --      1.5868                 1.3247                 1.2727
 Frc consts  --      0.8702                 0.7340                 0.7328
 IR Inten    --     18.4568                 0.0702                 0.2241

                     28                     29                     30
                      A                      A                      A
 Frequencies --   1015.7902              1021.4064              1041.4325
 Red. masses --      5.9920                 1.2041                 1.4974
 Frc consts  --      3.6427                 0.7401                 0.9568
 IR Inten    --      0.0881                39.2716                15.2063

                     31                     32                     33
                      A                      A                      A
 Frequencies --   1046.0939              1059.7426              1090.9726
 Red. masses --      2.4119                 1.8081                 2.9221
 Frc consts  --      1.5551                 1.1964                 2.0491
 IR Inten    --      3.5889                 9.7099                 2.3031

                     34                     35                     36
                      A                      A                      A
 Frequencies --   1101.2996              1183.3906              1199.7661
 Red. masses --      1.7000                 1.1284                 1.1654
 Frc consts  --      1.2148                 0.9310                 0.9884
 IR Inten    --      3.5108                 0.2436                 0.5352

                     37                     38                     39
                      A                      A                      A
 Frequencies --   1272.4213              1292.8629              1321.8436
 Red. masses --      1.4174                 2.0025                 3.3761
 Frc consts  --      1.3521                 1.9721                 3.4755
 IR Inten    --      7.0906                 2.5926                 1.2787

                     40                     41                     42
                      A                      A                      A
 Frequencies --   1351.9615              1441.2565              1476.8301
 Red. masses --      1.6882                 1.2424                 2.1216
 Frc consts  --      1.8181                 1.5205                 2.7263
 IR Inten    --      1.2261                17.9960                 7.8274

                     43                     44                     45
                      A                      A                      A
 Frequencies --   1512.0594              1534.4257              1583.5327
 Red. masses --      1.9996                 1.3719                 2.6060
 Frc consts  --      2.6936                 1.9030                 3.8501
 IR Inten    --     19.6721                 5.9507                30.6757

                     46                     47                     48
                      A                      A                      A
 Frequencies --   1616.6769              1625.4911              3149.1147
 Red. masses --      5.4214                 5.1867                 1.0588
 Frc consts  --      8.3484                 8.0744                 6.1865
 IR Inten    --      1.9464                14.9506                 9.6020

                     49                     50                     51
                      A                      A                      A
 Frequencies --   3154.6332              3159.7318              3164.3694
 Red. masses --      1.0849                 1.0868                 1.0591
 Frc consts  --      6.3609                 6.3927                 6.2482
 IR Inten    --      8.6187                 2.4169                 5.9894

                     52                     53                     54
                      A                      A                      A
 Frequencies --   3170.5643              3180.1248              3193.1355
 Red. masses --      1.0868                 1.0913                 1.0942
 Frc consts  --      6.4369                 6.5023                 6.5734
 IR Inten    --      0.6890                15.2914                13.4829

                     55                     56                     57
                      A                      A                      A
 Frequencies --   3199.6865              3236.5412              3252.5271
 Red. masses --      1.0941                 1.1169                 1.1181
 Frc consts  --      6.5996                 6.8931                 6.9690
 IR Inten    --      9.8626                 3.9377                 4.2834

 - Thermochemistry -
 -------------------
 Temperature   298.150 Kelvin.  Pressure   1.00000 Atm.
 Atom     1 has atomic number  6 and mass  12.00000

 Molecular mass:   166.04524 amu.
 Principal axes and moments of inertia in atomic units:
                           1         2         3
     Eigenvalues --   904.477493034.078863189.59709
           X            0.99999   0.00120  -0.00503
           Y           -0.00116   0.99997   0.00794
           Z            0.00504  -0.00793   0.99996
 This molecule is an asymmetric top.
 Rotational symmetry number  1.
 Warning -- assumption of classical behavior for rotation
           may cause significant error
 Rotational temperatures (Kelvin)      0.09576     0.02855     0.02716
 Rotational constants (GHZ):           1.99534     0.59482     0.56582
    1 imaginary frequencies ignored.
 Zero-point vibrational energy     432483.9 (Joules/Mol)
                                  103.36614 (Kcal/Mol)
 Warning -- explicit consideration of  13 degrees of freedom as
           vibrations may cause significant error
 Vibrational temperatures:     73.23    96.85   137.99   270.13   306.21
          (Kelvin)            346.47   456.24   549.91   584.44   592.02
                              656.03   682.91   711.08   906.80   998.55
                             1016.53  1020.53  1093.27  1161.44  1238.10
                             1294.60  1331.92  1355.73  1388.07  1395.30
                             1422.32  1461.50  1469.58  1498.39  1505.10
                             1524.73  1569.67  1584.52  1702.64  1726.20
                             1830.73  1860.14  1901.84  1945.17  2073.65
                             2124.83  2175.52  2207.70  2278.35  2326.04
                             2338.72  4530.87  4538.81  4546.15  4552.82
                             4561.73  4575.49  4594.21  4603.64  4656.66
                             4679.66

 Zero-point correction=                           0.164724 (Hartree/Particle)
 Thermal correction to Energy=                    0.174909
 Thermal correction to Enthalpy=                  0.175853
 Thermal correction to Gibbs Free Energy=         0.128250
 Sum of electronic and zero-point Energies=           -822.337058
 Sum of electronic and thermal Energies=              -822.326874
 Sum of electronic and thermal Enthalpies=            -822.325930
 Sum of electronic and thermal Free Energies=         -822.373533

                     E (Thermal)             CV                S
                      KCal/Mol        Cal/Mol-Kelvin    Cal/Mol-Kelvin
 Total                  109.757             38.989            100.189
 Electronic               0.000              0.000              0.000
 Translational            0.889              2.981             41.230
 Rotational               0.889              2.981             30.549
 Vibrational            107.979             33.028             28.410
 Vibration     1          0.595              1.977              4.782
 Vibration     2          0.598              1.970              4.230
 Vibration     3          0.603              1.952              3.536
 Vibration     4          0.632              1.857              2.250
 Vibration     5          0.644              1.821              2.019
 Vibration     6          0.658              1.778              1.797
 Vibration     7          0.704              1.641              1.325
 Vibration     8          0.752              1.508              1.030
 Vibration     9          0.771              1.457              0.940
 Vibration    10          0.775              1.445              0.921
 Vibration    11          0.814              1.348              0.778
 Vibration    12          0.831              1.306              0.725
 Vibration    13          0.850              1.263              0.673

 Optimization completed.
    -- Stationary point found.
 Normal termination of Gaussian 16 at Fri Jun 10 11:04:02 2022.
