 Gaussian 16, Revision A.03,
 Gaussian 16:  ES64L-G16RevA.03 25-Dec-2016

 ----------------------------------------------------------------------
 # Opt=(TS, CalcFC, noeigentest, Z-matrix, MaxStep=10) Field=read NoSym
 m B3LYP/Def2TZVP freq=noraman pop=none
 ----------------------------------------------------------------------

 -----------------
 ts_zmat_initalOpt
 -----------------
 Symbolic Z-matrix:
 Charge =  0 Multiplicity = 1

 SCF Done:  E(RB3LYP) =  -822.500790814     A.U. after   17 cycles
 SCF Done:  E(RB3LYP) =  -822.500809028     A.U. after   12 cycles
 Optimization completed.
    -- Stationary point found.
 Normal termination of Gaussian 16 at Fri Jun 10 11:49:07 2022.

 --------------------------------------------------------------------
 #N Geom=AllCheck Guess=TCheck SCRF=Check GenChk RB3LYP/def2TZVP Freq
 --------------------------------------------------------------------

 Structure from the checkpoint file:  "checkpoint.chk"
 -----------------
 ts_zmat_initalOpt
 -----------------
 Charge =  0 Multiplicity = 1

                          Input orientation:
 ---------------------------------------------------------------------
 Center     Atomic      Atomic             Coordinates (Angstroms)
 Number     Number       Type             X           Y           Z
 ---------------------------------------------------------------------
      1          6           0        0.000000    0.000000    0.000000
      2          6           0        0.000000    0.000000    1.392990
      3         16           0        1.522672    0.000000   -0.925667
      4          6           0       -1.207350   -0.030621   -0.701108
      5          8           0        2.649293    0.095606    0.108347
      6          1           0        0.945021   -0.000494    1.919566
      7          6           0       -1.208328   -0.021711    2.080003
      8          6           0       -2.408289   -0.058130   -0.006284
      9          1           0       -1.205067   -0.033570   -1.785313
     10          1           0       -1.205709   -0.023818    3.163223
     11          6           0       -2.413700   -0.050730    1.386526
     12          1           0       -3.342803   -0.083846   -0.553444
     13          1           0       -3.351971   -0.071794    1.926541
     14          6           0        3.215349    2.074333    0.442757
     15          6           0        2.953439    2.548142   -0.832320
     16          1           0        4.225882    1.876376    0.769256
     17          1           0        2.471319    2.162212    1.221352
     18          6           0        1.657427    2.578404   -1.288569
     19          1           0        3.766105    2.586008   -1.549162
     20          1           0        1.430895    2.766763   -2.329724
     21          1           0        0.828100    2.651655   -0.597517
 ---------------------------------------------------------------------

 SCF Done:  E(RB3LYP) =  -822.500809028     A.U. after    1 cycles

 Isotropic polarizability for W=    0.000000      144.06 Bohr**3.
 End of Minotr F.D. properties file   721 does not exist.

 ******    1 imaginary frequencies (negative Signs) ******

                      1                      2                      3
                      A                      A                      A
 Frequencies --   -268.9677                51.9330                66.3193
 Red. masses --      6.8875                 3.9193                 5.0897
 Frc consts  --      0.2936                 0.0062                 0.0132
 IR Inten    --     33.3321                 0.1377                 0.4105

                      4                      5                      6
                      A                      A                      A
 Frequencies --     95.2262               187.4156               212.0367
 Red. masses --      2.9213                 4.8520                 5.4608
 Frc consts  --      0.0156                 0.1004                 0.1447
 IR Inten    --      0.1921                 3.0587                 5.2333

                      7                      8                      9
                      A                      A                      A
 Frequencies --    241.6571               316.8107               379.4370
 Red. masses --      7.3338                 4.8908                 2.4706
 Frc consts  --      0.2523                 0.2892                 0.2096
 IR Inten    --      4.1304                 2.5301                 2.1579

                     10                     11                     12
                      A                      A                      A
 Frequencies --    404.6234               411.8261               454.4784
 Red. masses --      7.2303                 3.0197                 1.9576
 Frc consts  --      0.6974                 0.3017                 0.2382
 IR Inten    --      5.8104                 0.3043                 4.0637

                     13                     14                     15
                      A                      A                      A
 Frequencies --    476.5668               492.6247               630.3307
 Red. masses --      6.6233                 4.2761                 6.4295
 Frc consts  --      0.8863                 0.6114                 1.5051
 IR Inten    --     10.6720                 9.5797                 0.0128

                     16                     17                     18
                      A                      A                      A
 Frequencies --    693.8950               705.2394               706.4583
 Red. masses --      1.3618                 2.6027                 4.5444
 Frc consts  --      0.3863                 0.7627                 1.3363
 IR Inten    --      8.5298                14.9893                13.6281

                     19                     20                     21
                      A                      A                      A
 Frequencies --    754.4830               802.1259               858.6171
 Red. masses --      1.5643                 1.1026                 1.2523
 Frc consts  --      0.5246                 0.4180                 0.5439
 IR Inten    --     41.9256                 0.9721                 0.0977

                     22                     23                     24
                      A                      A                      A
 Frequencies --    905.1144               918.3172               943.4541
 Red. masses --      2.0430                 1.4083                 1.1423
 Frc consts  --      0.9861                 0.6997                 0.5991
 IR Inten    --     28.6455                 5.9518                 0.5273

                     25                     26                     27
                      A                      A                      A
 Frequencies --    957.8550               967.0088               983.4374
 Red. masses --      1.2765                 1.6385                 1.2890
 Frc consts  --      0.6901                 0.9028                 0.7345
 IR Inten    --      0.1448                20.3400                 0.2891

                     28                     29                     30
                      A                      A                      A
 Frequencies --   1015.1407              1024.7570              1041.3252
 Red. masses --      6.0845                 1.1833                 1.5686
 Frc consts  --      3.6943                 0.7321                 1.0021
 IR Inten    --      0.2064                38.2608                14.8306

                     31                     32                     33
                      A                      A                      A
 Frequencies --   1045.5585              1060.7930              1090.4921
 Red. masses --      2.3825                 1.8268                 2.9007
 Frc consts  --      1.5346                 1.2111                 2.0324
 IR Inten    --      4.6080                10.8236                 4.6010

                     34                     35                     36
                      A                      A                      A
 Frequencies --   1100.4120              1180.4223              1198.7455
 Red. masses --      1.7198                 1.1232                 1.1667
 Frc consts  --      1.2270                 0.9221                 0.9878
 IR Inten    --      3.5776                 0.3241                 0.4148

                     37                     38                     39
                      A                      A                      A
 Frequencies --   1274.7104              1292.4603              1321.5265
 Red. masses --      1.4004                 2.0325                 3.3145
 Frc consts  --      1.3407                 2.0004                 3.4105
 IR Inten    --      7.8649                 2.2258                 1.3755

                     40                     41                     42
                      A                      A                      A
 Frequencies --   1351.9061              1441.6706              1475.4917
 Red. masses --      1.7071                 1.2399                 2.1368
 Frc consts  --      1.8382                 1.5184                 2.7409
 IR Inten    --      1.0191                19.0909                 7.3192

                     43                     44                     45
                      A                      A                      A
 Frequencies --   1511.4514              1535.3011              1583.5990
 Red. masses --      1.9983                 1.3748                 2.6181
 Frc consts  --      2.6897                 1.9094                 3.8684
 IR Inten    --     21.7048                 6.5427                35.2925

                     46                     47                     48
                      A                      A                      A
 Frequencies --   1615.2482              1625.2135              3148.0948
 Red. masses --      5.4293                 5.1911                 1.0561
 Frc consts  --      8.3460                 8.0785                 6.1667
 IR Inten    --      2.0933                23.4735                 7.1105

                     49                     50                     51
                      A                      A                      A
 Frequencies --   3157.2191              3160.2228              3165.2913
 Red. masses --      1.0854                 1.0876                 1.0596
 Frc consts  --      6.3744                 6.3994                 6.2552
 IR Inten    --      1.5408                 6.5874                 5.4236

                     52                     53                     54
                      A                      A                      A
 Frequencies --   3166.0659              3175.4423              3188.0332
 Red. masses --      1.0872                 1.0916                 1.0954
 Frc consts  --      6.4212                 6.4852                 6.5593
 IR Inten    --      0.6409                22.4169                26.1790

                     55                     56                     57
                      A                      A                      A
 Frequencies --   3199.2037              3235.2822              3255.0888
 Red. masses --      1.0927                 1.1167                 1.1181
 Frc consts  --      6.5895                 6.8868                 6.9800
 IR Inten    --      7.7288                 3.9341                 2.7804

 - Thermochemistry -
 -------------------
 Temperature   298.150 Kelvin.  Pressure   1.00000 Atm.
 Atom     1 has atomic number  6 and mass  12.00000

 Molecular mass:   166.04524 amu.
 Principal axes and moments of inertia in atomic units:
                           1         2         3
     Eigenvalues --   899.149233050.710993206.31673
           X            0.89541   0.32443  -0.30493
           Y            0.34583  -0.07542   0.93526
           Z           -0.28043   0.94290   0.17973
 This molecule is an asymmetric top.
 Rotational symmetry number  1.
 Warning -- assumption of classical behavior for rotation
           may cause significant error
 Rotational temperatures (Kelvin)      0.09633     0.02839     0.02701
 Rotational constants (GHZ):           2.00717     0.59158     0.56287
    1 imaginary frequencies ignored.
 Zero-point vibrational energy     432171.7 (Joules/Mol)
                                  103.29151 (Kcal/Mol)
 Warning -- explicit consideration of  13 degrees of freedom as
           vibrations may cause significant error
 Vibrational temperatures:     74.72    95.42   137.01   269.65   305.07
          (Kelvin)            347.69   455.82   545.93   582.16   592.53
                              653.89   685.67   708.78   906.91   998.36
                             1014.68  1016.44  1085.53  1154.08  1235.36
                             1302.26  1321.25  1357.42  1378.14  1391.31
                             1414.95  1460.56  1474.40  1498.23  1504.33
                             1526.24  1568.97  1583.25  1698.36  1724.73
                             1834.02  1859.56  1901.38  1945.09  2074.24
                             2122.90  2174.64  2208.96  2278.45  2323.98
                             2338.32  4529.41  4542.53  4546.86  4554.15
                             4555.26  4568.75  4586.87  4602.94  4654.85
                             4683.35

 Zero-point correction=                           0.164605 (Hartree/Particle)
 Thermal correction to Energy=                    0.174804
 Thermal correction to Enthalpy=                  0.175749
 Thermal correction to Gibbs Free Energy=         0.128120
 Sum of electronic and zero-point Energies=           -822.336204
 Sum of electronic and thermal Energies=              -822.326005
 Sum of electronic and thermal Enthalpies=            -822.325060
 Sum of electronic and thermal Free Energies=         -822.372689

                     E (Thermal)             CV                S
                      KCal/Mol        Cal/Mol-Kelvin    Cal/Mol-Kelvin
 Total                  109.691             39.049            100.243
 Electronic               0.000              0.000              0.000
 Translational            0.889              2.981             41.230
 Rotational               0.889              2.981             30.554
 Vibrational            107.914             33.087             28.459
 Vibration     1          0.596              1.977              4.742
 Vibration     2          0.598              1.970              4.260
 Vibration     3          0.603              1.953              3.550
 Vibration     4          0.632              1.857              2.253
 Vibration     5          0.643              1.823              2.026
 Vibration     6          0.658              1.777              1.791
 Vibration     7          0.704              1.642              1.327
 Vibration     8          0.749              1.514              1.041
 Vibration     9          0.770              1.460              0.946
 Vibration    10          0.776              1.445              0.920
 Vibration    11          0.813              1.351              0.782
 Vibration    12          0.833              1.302              0.719
 Vibration    13          0.848              1.266              0.677

 Optimization completed.
    -- Stationary point found.
 Normal termination of Gaussian 16 at Fri Jun 10 12:05:51 2022.
