 Gaussian 16, Revision A.03,
 Gaussian 16:  ES64L-G16RevA.03 25-Dec-2016

 ----------------------------------------------------------------------
 # Opt=(Z-matrix, MaxStep=10) B3LYP/Def2TZVP Field=read NoSymm freq=nor
 aman pop=none
 ----------------------------------------------------------------------

 ------------------
 int_zmat_initalOpt
 ------------------
 Symbolic Z-matrix:
 Charge =  0 Multiplicity = 1

 SCF Done:  E(RB3LYP) =  -269.422771583     A.U. after   13 cycles
 SCF Done:  E(RB3LYP) =  -269.422784555     A.U. after    8 cycles
 SCF Done:  E(RB3LYP) =  -269.422790004     A.U. after    8 cycles
 SCF Done:  E(RB3LYP) =  -269.422791484     A.U. after    8 cycles
 SCF Done:  E(RB3LYP) =  -269.422791986     A.U. after    8 cycles
 Optimization completed.
    -- Stationary point found.
 Normal termination of Gaussian 16 at Fri Jun 10 02:41:16 2022.

 --------------------------------------------------------------------
 #N Geom=AllCheck Guess=TCheck SCRF=Check GenChk RB3LYP/def2TZVP Freq
 --------------------------------------------------------------------

 Structure from the checkpoint file:  "checkpoint.chk"
 ------------------
 int_zmat_initalOpt
 ------------------
 Charge =  0 Multiplicity = 1

                          Input orientation:
 ---------------------------------------------------------------------
 Center     Atomic      Atomic             Coordinates (Angstroms)
 Number     Number       Type             X           Y           Z
 ---------------------------------------------------------------------
      1          1           0        0.000000    0.000000    0.000000
      2          6           0        0.000000    0.000000    1.082006
      3          6           0        1.124994    0.000000    1.802736
      4          6           0       -1.311661   -0.042079    1.810287
      5          1           0        2.097554    0.005857    1.326811
      6          6           0        1.040347    0.088576    3.251765
      7          8           0       -1.255113    0.657203    3.073419
      8          1           0       -2.112026    0.438833    1.250354
      9          1           0       -1.615764   -1.080820    2.018658
     10          1           0        1.914941   -0.014811    3.876714
     11          6           0       -0.126913    0.463886    3.795126
     12          1           0       -0.259183    0.728957    4.836279
 ---------------------------------------------------------------------

 SCF Done:  E(RB3LYP) =  -269.422791986     A.U. after    1 cycles

 Isotropic polarizability for W=    0.000000       59.50 Bohr**3.
 End of Minotr F.D. properties file   721 does not exist.

                      1                      2                      3
                      A                      A                      A
 Frequencies --    172.6361               334.0543               501.5033
 Red. masses --      2.2108                 2.7487                 3.1913
 Frc consts  --      0.0388                 0.1807                 0.4729
 IR Inten    --      2.2497                11.9030                15.1300

                      4                      5                      6
                      A                      A                      A
 Frequencies --    572.1256               617.4129               723.4771
 Red. masses --      3.0908                 4.8357                 1.5211
 Frc consts  --      0.5961                 1.0861                 0.4691
 IR Inten    --     14.1956                 0.7289                47.5936

                      7                      8                      9
                      A                      A                      A
 Frequencies --    773.9411               862.4059               925.9821
 Red. masses --      1.3429                 3.7759                 1.4106
 Frc consts  --      0.4739                 1.6546                 0.7126
 IR Inten    --     15.8821                12.1887                 1.4853

                     10                     11                     12
                      A                      A                      A
 Frequencies --    953.8884               972.9730               978.7218
 Red. masses --      2.6464                 2.5195                 1.7448
 Frc consts  --      1.4187                 1.4053                 0.9847
 IR Inten    --      9.2808                22.6145                 1.7390

                     13                     14                     15
                      A                      A                      A
 Frequencies --    994.6542              1082.3053              1098.9736
 Red. masses --      2.0769                 2.2625                 2.0123
 Frc consts  --      1.2106                 1.5615                 1.4319
 IR Inten    --      5.4584                 4.9600                59.0342

                     16                     17                     18
                      A                      A                      A
 Frequencies --   1189.8494              1247.2314              1279.0495
 Red. masses --      1.1127                 1.4317                 1.1378
 Frc consts  --      0.9282                 1.3122                 1.0967
 IR Inten    --      0.5140                44.8312                 9.3948

                     19                     20                     21
                      A                      A                      A
 Frequencies --   1370.5404              1415.4488              1448.5730
 Red. masses --      1.2128                 1.5480                 1.7505
 Frc consts  --      1.3422                 1.8273                 2.1642
 IR Inten    --      0.6501                10.8630                 7.2454

                     22                     23                     24
                      A                      A                      A
 Frequencies --   1501.0292              1621.2988              1694.2385
 Red. masses --      1.1094                 5.7852                 5.4311
 Frc consts  --      1.4727                 8.9597                 9.1852
 IR Inten    --      1.6757                45.6500                30.1029

                     25                     26                     27
                      A                      A                      A
 Frequencies --   2926.9021              3100.8799              3174.5829
 Red. masses --      1.0738                 1.0887                 1.0858
 Frc consts  --      5.4198                 6.1678                 6.4475
 IR Inten    --     99.1985                20.1463                 3.9693

                     28                     29                     30
                      A                      A                      A
 Frequencies --   3187.9283              3195.5623              3217.2366
 Red. masses --      1.0888                 1.0973                 1.0971
 Frc consts  --      6.5195                 6.6018                 6.6905
 IR Inten    --      4.5919                10.8288                10.2293

 - Thermochemistry -
 -------------------
 Temperature   298.150 Kelvin.  Pressure   1.00000 Atm.
 Atom     1 has atomic number  1 and mass   1.00783

 Molecular mass:    82.04186 amu.
 Principal axes and moments of inertia in atomic units:
                           1         2         3
     Eigenvalues --   323.25653 335.86456 632.11215
           X            0.78551   0.60956   0.10685
           Y           -0.20443   0.09262   0.97449
           Z           -0.58411   0.78731  -0.19737
 This molecule is an asymmetric top.
 Rotational symmetry number  1.
 Rotational temperatures (Kelvin)      0.26794     0.25788     0.13702
 Rotational constants (GHZ):           5.58300     5.37342     2.85510
 Zero-point vibrational energy     258007.0 (Joules/Mol)
                                   61.66516 (Kcal/Mol)
 Warning -- explicit consideration of   5 degrees of freedom as
           vibrations may cause significant error
 Vibrational temperatures:    248.38   480.63   721.55   823.16   888.32
          (Kelvin)           1040.92  1113.53  1240.81  1332.28  1372.43
                             1399.89  1408.16  1431.09  1557.20  1581.18
                             1711.93  1794.49  1840.27  1971.90  2036.52
                             2084.17  2159.65  2332.69  2437.63  4211.16
                             4461.47  4567.52  4586.72  4597.70  4628.89

 Zero-point correction=                           0.098270 (Hartree/Particle)
 Thermal correction to Energy=                    0.103226
 Thermal correction to Enthalpy=                  0.104170
 Thermal correction to Gibbs Free Energy=         0.070148
 Sum of electronic and zero-point Energies=           -269.324522
 Sum of electronic and thermal Energies=              -269.319566
 Sum of electronic and thermal Enthalpies=            -269.318622
 Sum of electronic and thermal Free Energies=         -269.352644

                     E (Thermal)             CV                S
                      KCal/Mol        Cal/Mol-Kelvin    Cal/Mol-Kelvin
 Total                   64.775             18.490             71.606
 Electronic               0.000              0.000              0.000
 Translational            0.889              2.981             39.128
 Rotational               0.889              2.981             25.732
 Vibrational             62.998             12.529              6.746
 Vibration     1          0.626              1.876              2.407
 Vibration     2          0.716              1.607              1.240
 Vibration     3          0.857              1.247              0.654
 Vibration     4          0.928              1.092              0.500
 Vibration     5          0.977              0.995              0.421

                       ! Non-Optimized Parameters !
 Normal termination of Gaussian 16 at Fri Jun 10 02:43:50 2022.
