 Gaussian 16, Revision A.03,
 Gaussian 16:  ES64L-G16RevA.03 25-Dec-2016

 --------------------------
 # sp B3LYP/Def2TZVP NoSymm
 --------------------------

 ---------------------------
 ts_initalOpt_zmat_AlignedSp
 ---------------------------
 Symbolic Z-matrix:
 Charge =  0 Multiplicity = 1

                          Input orientation:
 ---------------------------------------------------------------------
 Center     Atomic      Atomic             Coordinates (Angstroms)
 Number     Number       Type             X           Y           Z
 ---------------------------------------------------------------------
      1          6           0        0.000000    0.000000    0.000000
      2          6           0        0.000000    0.000000    1.391629
      3          6           0        1.341837    0.000000   -0.401015
      4          1           0       -0.857756   -0.003803   -0.653789
      5          6           0        1.330294    0.019280    1.812627
      6          7           0        2.194183   -0.033597    0.776761
      7          1           0        1.774952   -0.250080   -1.357422
      8          1           0       -0.868684    0.014464    2.032533
      9          1           0        2.043756    0.991490    0.033457
     10          1           0        1.706928    0.102171    2.821138
 ---------------------------------------------------------------------

 SCF Done:  E(RB3LYP) =  -210.175709361     A.U. after   14 cycles

 Alpha  occ. eigenvalues --  -14.34125 -10.21670 -10.19481 -10.18050 -10.17778
 Alpha  occ. eigenvalues --   -0.97753  -0.77581  -0.73519  -0.58564  -0.56295
 Alpha  occ. eigenvalues --   -0.52621  -0.47542  -0.40877  -0.40248  -0.39979
 Alpha  occ. eigenvalues --   -0.30272  -0.28330  -0.25349
 Alpha virt. eigenvalues --   -0.01105   0.01723   0.05429   0.07031   0.08687
 Alpha virt. eigenvalues --    0.09004   0.09941   0.13859   0.15856   0.17736
 Alpha virt. eigenvalues --    0.19506   0.21428   0.22598   0.23806   0.24482

 Mulliken charges:
               1
     1  C   -0.176401
     2  C   -0.089220
     3  C   -0.071844
     4  H    0.120824
     5  C   -0.107713
     6  N   -0.284266
     7  H    0.150845
     8  H    0.114930
     9  H    0.226901
    10  H    0.115943
 Sum of Mulliken charges =  -0.00000

 Dipole moment (field-independent basis, Debye):
    X=             -1.1905    Y=              0.6671    Z=             -0.5607  Tot=              1.4754
 Quadrupole moment (field-independent basis, Debye-Ang):
   XX=            -33.7786   YY=            -31.8878   ZZ=            -26.7806
   XY=              1.7461   XZ=             -2.3195   YZ=              0.6879

 Normal termination of Gaussian 16 at Fri Jun 10 11:02:17 2022.
