 Gaussian 16, Revision A.03,
 Gaussian 16:  ES64L-G16RevA.03 25-Dec-2016

 --------------------------
 # sp B3LYP/Def2TZVP NoSymm
 --------------------------

 ---------------------------------
 ts_initalOptXYZ_aligned_AlignedSp
 ---------------------------------
 Symbolic Z-matrix:
 Charge =  0 Multiplicity = 1

                          Input orientation:
 ---------------------------------------------------------------------
 Center     Atomic      Atomic             Coordinates (Angstroms)
 Number     Number       Type             X           Y           Z
 ---------------------------------------------------------------------
      1          6           0        0.654722   -1.092996    0.650832
      2          6           0        0.654729    1.092992    0.650833
      3          6           0       -0.686321   -1.455198    0.566787
      4          6           0        1.525842    0.769594   -0.556985
      5          6           0        1.525834   -0.769603   -0.556987
      6          6           0       -0.686313    1.455203    0.566786
      7          6           0       -1.495902    1.220775   -0.521834
      8          6           0       -1.495911   -1.220768   -0.521832
      9          1           0       -1.084305   -1.117496   -1.514941
     10          1           0       -2.550173   -1.458000   -0.475884
     11          1           0       -1.172560   -1.723793    1.500563
     12          1           0        1.175151   -1.338612    1.569265
     13          1           0        2.526189   -1.189428   -0.436131
     14          1           0        1.115630   -1.192976   -1.475672
     15          1           0        2.526200    1.189411   -0.436125
     16          1           0        1.115644    1.192973   -1.475670
     17          1           0        1.175159    1.338605    1.569267
     18          1           0       -1.172552    1.723800    1.500561
     19          1           0       -1.084295    1.117500   -1.514942
     20          1           0       -2.550163    1.458015   -0.475888
 ---------------------------------------------------------------------

 SCF Done:  E(RB3LYP) =  -312.079787613     A.U. after   14 cycles

 Alpha  occ. eigenvalues --  -10.18167 -10.18167 -10.17162 -10.17143 -10.17028
 Alpha  occ. eigenvalues --  -10.17028 -10.16205 -10.16203  -0.83629  -0.77663
 Alpha  occ. eigenvalues --   -0.75856  -0.67516  -0.66398  -0.60185  -0.54911
 Alpha  occ. eigenvalues --   -0.50575  -0.50224  -0.46844  -0.46297  -0.43209
 Alpha  occ. eigenvalues --   -0.40280  -0.40237  -0.37798  -0.37211  -0.36331
 Alpha  occ. eigenvalues --   -0.33362  -0.32190  -0.31997  -0.24083  -0.21179
 Alpha virt. eigenvalues --   -0.03807   0.00481   0.03418   0.04141   0.06652
 Alpha virt. eigenvalues --    0.06911   0.07926   0.09342   0.10097   0.10843
 Alpha virt. eigenvalues --    0.11357   0.13379   0.14249   0.14622   0.14867

 Mulliken charges:
               1
     1  C   -0.091387
     2  C   -0.091388
     3  C   -0.062731
     4  C   -0.153383
     5  C   -0.153384
     6  C   -0.062732
     7  C   -0.290857
     8  C   -0.290857
     9  H    0.115877
    10  H    0.115805
    11  H    0.088252
    12  H    0.102522
    13  H    0.086919
    14  H    0.088984
    15  H    0.086920
    16  H    0.088984
    17  H    0.102522
    18  H    0.088252
    19  H    0.115877
    20  H    0.115805
 Sum of Mulliken charges =  -0.00000

 Dipole moment (field-independent basis, Debye):
    X=              0.4405    Y=             -0.0000    Z=              0.1124  Tot=              0.4546
 Quadrupole moment (field-independent basis, Debye-Ang):
   XX=            -47.8927   YY=            -56.1163   ZZ=            -48.4951
   XY=             -0.0000   XZ=              0.4474   YZ=             -0.0000

 Normal termination of Gaussian 16 at Fri Jun 10 22:16:19 2022.
