 Gaussian 16, Revision A.03,
 Gaussian 16:  ES64L-G16RevA.03 25-Dec-2016

 --------------------------
 # sp B3LYP/Def2TZVP NoSymm
 --------------------------

 ---------------------------------
 ts_initalOptXYZ_aligned_AlignedSp
 ---------------------------------
 Symbolic Z-matrix:
 Charge =  0 Multiplicity = 1

                          Input orientation:
 ---------------------------------------------------------------------
 Center     Atomic      Atomic             Coordinates (Angstroms)
 Number     Number       Type             X           Y           Z
 ---------------------------------------------------------------------
      1          6           0        0.728228    1.208428   -0.023554
      2          6           0        1.443808    0.033659   -0.216198
      3          6           0       -0.638935    1.176457    0.270922
      4          1           0        2.285651    0.003366   -0.896848
      5          1           0        1.175785    2.164867   -0.277347
      6          1           0       -1.187854    2.103485    0.366265
      7          6           0       -1.390606    0.035693   -0.090631
      8          1           0       -2.412078    0.231350   -0.439165
      9          8           0       -0.992589   -1.151118   -0.202587
     10          6           0        0.909672   -1.134568    0.318919
     11          1           0        1.255288   -2.105485   -0.012382
     12          1           0        0.510911   -1.106655    1.323430
 ---------------------------------------------------------------------

 SCF Done:  E(RB3LYP) =  -269.391777563     A.U. after   15 cycles

 Alpha  occ. eigenvalues --  -19.14210 -10.25216 -10.22025 -10.19713 -10.17183
 Alpha  occ. eigenvalues --  -10.16810  -1.04687  -0.82889  -0.75669  -0.66725
 Alpha  occ. eigenvalues --   -0.60755  -0.52726  -0.50981  -0.47029  -0.45940
 Alpha  occ. eigenvalues --   -0.44222  -0.39713  -0.38200  -0.37609  -0.32592
 Alpha  occ. eigenvalues --   -0.28924  -0.21522
 Alpha virt. eigenvalues --   -0.06867   0.00076   0.04601   0.05564   0.07414
 Alpha virt. eigenvalues --    0.07938   0.09478   0.11463   0.12253   0.15881
 Alpha virt. eigenvalues --    0.18106   0.19678   0.20442   0.21643   0.22018

 Mulliken charges:
               1
     1  C   -0.019598
     2  C   -0.195590
     3  C   -0.258480
     4  H    0.109925
     5  H    0.114857
     6  H    0.100605
     7  C    0.161216
     8  H    0.110703
     9  O   -0.297474
    10  C   -0.091813
    11  H    0.134346
    12  H    0.131302
 Sum of Mulliken charges =  -0.00000

 Dipole moment (field-independent basis, Debye):
    X=              0.5210    Y=              0.9317    Z=             -0.0619  Tot=              1.0692
 Quadrupole moment (field-independent basis, Debye-Ang):
   XX=            -33.7919   YY=            -34.6360   ZZ=            -37.4030
   XY=             -3.0897   XZ=             -1.0635   YZ=             -1.4377

 Normal termination of Gaussian 16 at Fri Jun 10 10:57:26 2022.
