 Gaussian 16, Revision A.03,
 Gaussian 16:  ES64L-G16RevA.03 25-Dec-2016

 ----------------------------------------------------------------------
 # Opt=(TS, CalcFC, noeigentest, Z-matrix, MaxStep=10) Field=read NoSym
 m B3LYP/Def2TZVP freq=noraman pop=none
 ----------------------------------------------------------------------

 -----------------
 ts_zmat_initalOpt
 -----------------
 Symbolic Z-matrix:
 Charge =  0 Multiplicity = 1

 SCF Done:  E(RB3LYP) =  -289.018235142     A.U. after   14 cycles
 SCF Done:  E(RB3LYP) =  -289.018240496     A.U. after    9 cycles
 Optimization completed.
    -- Stationary point found.
 Normal termination of Gaussian 16 at Fri Jun 10 11:12:10 2022.

 --------------------------------------------------------------------
 #N Geom=AllCheck Guess=TCheck SCRF=Check GenChk RB3LYP/def2TZVP Freq
 --------------------------------------------------------------------

 Structure from the checkpoint file:  "checkpoint.chk"
 -----------------
 ts_zmat_initalOpt
 -----------------
 Charge =  0 Multiplicity = 1

                          Input orientation:
 ---------------------------------------------------------------------
 Center     Atomic      Atomic             Coordinates (Angstroms)
 Number     Number       Type             X           Y           Z
 ---------------------------------------------------------------------
      1          7           0        0.000000    0.000000    0.000000
      2          8           0        0.000000    0.000000    1.340632
      3          6           0        1.359185    0.000000   -0.547014
      4          6           0       -0.851689   -1.056381   -0.546378
      5          1           0        1.865711   -0.939519   -0.310254
      6          1           0        1.909843    0.820937   -0.095007
      7          1           0        1.320334    0.133472   -1.629526
      8          1           0       -1.839225   -0.964489   -0.100074
      9          1           0       -0.441443   -2.041052   -0.304363
     10          1           0       -0.923573   -0.946871   -1.630215
     11          6           0       -0.871520    1.820263   -0.374180
     12          6           0       -1.087253    2.242519    0.948210
     13          1           0       -0.053791    2.229876   -0.954596
     14          1           0       -1.691560    1.440935   -0.972655
     15          1           0       -0.542289    1.123167    1.493399
     16          1           0       -2.108468    2.253189    1.317028
     17          1           0       -0.470154    3.049835    1.329441
 ---------------------------------------------------------------------

 SCF Done:  E(RB3LYP) =  -289.018240496     A.U. after    1 cycles

 Isotropic polarizability for W=    0.000000       71.19 Bohr**3.
 End of Minotr F.D. properties file   721 does not exist.

 ******    1 imaginary frequencies (negative Signs) ******

                      1                      2                      3
                      A                      A                      A
 Frequencies --  -1123.5279               116.9879               223.4979
 Red. masses --      1.2782                 2.2582                 1.1546
 Frc consts  --      0.9507                 0.0182                 0.0340
 IR Inten    --    278.8009                 0.0586                 0.1742

                      4                      5                      6
                      A                      A                      A
 Frequencies --    236.0562               245.6007               276.5959
 Red. masses --      1.9206                 1.1063                 2.6442
 Frc consts  --      0.0631                 0.0393                 0.1192
 IR Inten    --      0.0269                 1.8687                19.9101

                      7                      8                      9
                      A                      A                      A
 Frequencies --    380.5322               426.5309               495.3653
 Red. masses --      2.7756                 2.9583                 3.2918
 Frc consts  --      0.2368                 0.3171                 0.4759
 IR Inten    --     30.4195                24.4742                 8.9143

                     10                     11                     12
                      A                      A                      A
 Frequencies --    536.2536               568.3304               633.1469
 Red. masses --      1.1235                 3.2046                 5.4525
 Frc consts  --      0.1904                 0.6099                 1.2878
 IR Inten    --      2.0603                 6.4600                 7.6529

                     13                     14                     15
                      A                      A                      A
 Frequencies --    818.2392               864.3418               924.5318
 Red. masses --      1.0869                 4.2940                 1.1114
 Frc consts  --      0.4287                 1.8901                 0.5597
 IR Inten    --      2.0090                29.0361                 2.6008

                     16                     17                     18
                      A                      A                      A
 Frequencies --    995.8831              1014.0339              1071.9122
 Red. masses --      1.2991                 1.5553                 1.1709
 Frc consts  --      0.7591                 0.9423                 0.7927
 IR Inten    --     18.0122                 1.9937                 5.1639

                     19                     20                     21
                      A                      A                      A
 Frequencies --   1085.1039              1102.2162              1198.9660
 Red. masses --      2.0610                 1.2374                 1.6074
 Frc consts  --      1.4298                 0.8857                 1.3614
 IR Inten    --     45.2413                 0.3345                 1.2885

                     22                     23                     24
                      A                      A                      A
 Frequencies --   1234.7220              1260.8211              1263.6349
 Red. masses --      1.4624                 3.0162                 2.1333
 Frc consts  --      1.3136                 2.8249                 2.0070
 IR Inten    --      1.5974                 2.1452                61.4014

                     25                     26                     27
                      A                      A                      A
 Frequencies --   1313.9084              1317.5050              1428.0635
 Red. masses --      2.1423                 1.0834                 1.1736
 Frc consts  --      2.1790                 1.1080                 1.4101
 IR Inten    --    105.5429                17.9636                 0.7054

                     28                     29                     30
                      A                      A                      A
 Frequencies --   1452.9915              1470.2765              1472.6426
 Red. masses --      1.1917                 1.1045                 1.0483
 Frc consts  --      1.4823                 1.4067                 1.3395
 IR Inten    --      3.5687                 2.1562                 1.9222

                     31                     32                     33
                      A                      A                      A
 Frequencies --   1487.1630              1492.4648              1507.6987
 Red. masses --      1.0470                 1.0475                 1.0624
 Frc consts  --      1.3643                 1.3747                 1.4228
 IR Inten    --      9.2071                 4.9722                 4.8953

                     34                     35                     36
                      A                      A                      A
 Frequencies --   1542.8994              1693.9403              3019.9249
 Red. masses --      1.4813                 1.0617                 1.0363
 Frc consts  --      2.0776                 1.7949                 5.5686
 IR Inten    --     29.1966                27.4836                30.6697

                     37                     38                     39
                      A                      A                      A
 Frequencies --   3028.4605              3085.3154              3093.7791
 Red. masses --      1.0373                 1.1015                 1.1009
 Frc consts  --      5.6052                 6.1779                 6.2085
 IR Inten    --     61.8706                 8.8237                31.2827

                     40                     41                     42
                      A                      A                      A
 Frequencies --   3102.1113              3124.2186              3135.8941
 Red. masses --      1.0530                 1.0596                 1.1011
 Frc consts  --      5.9705                 6.0936                 6.3797
 IR Inten    --     15.6239                19.0060                11.7243

                     43                     44                     45
                      A                      A                      A
 Frequencies --   3146.3210              3169.8162              3203.8819
 Red. masses --      1.1013                 1.1129                 1.1158
 Frc consts  --      6.4235                 6.5885                 6.7482
 IR Inten    --      7.4791                 2.7519                22.2749

 - Thermochemistry -
 -------------------
 Temperature   298.150 Kelvin.  Pressure   1.00000 Atm.
 Atom     1 has atomic number  7 and mass  14.00307

 Molecular mass:    89.08406 amu.
 Principal axes and moments of inertia in atomic units:
                           1         2         3
     Eigenvalues --   375.49655 713.65475 727.18911
           X           -0.41608   0.89835   0.14090
           Y            0.85805   0.43917  -0.26622
           Z            0.30104  -0.01013   0.95356
 This molecule is an asymmetric top.
 Rotational symmetry number  1.
 Rotational temperatures (Kelvin)      0.23067     0.12137     0.11911
 Rotational constants (GHZ):           4.80628     2.52887     2.48180
    1 imaginary frequencies ignored.
 Zero-point vibrational energy     384375.6 (Joules/Mol)
                                   91.86797 (Kcal/Mol)
 Warning -- explicit consideration of  10 degrees of freedom as
           vibrations may cause significant error
 Vibrational temperatures:    168.32   321.56   339.63   353.36   397.96
          (Kelvin)            547.50   613.68   712.72   771.55   817.70
                              910.96  1177.26  1243.60  1330.20  1432.85
                             1458.97  1542.24  1561.22  1585.84  1725.04
                             1776.49  1814.04  1818.09  1890.42  1895.60
                             2054.66  2090.53  2115.40  2118.80  2139.70
                             2147.32  2169.24  2219.89  2437.20  4345.00
                             4357.28  4439.08  4451.26  4463.25  4495.05
                             4511.85  4526.85  4560.66  4609.67

 Zero-point correction=                           0.146401 (Hartree/Particle)
 Thermal correction to Energy=                    0.153730
 Thermal correction to Enthalpy=                  0.154674
 Thermal correction to Gibbs Free Energy=         0.115909
 Sum of electronic and zero-point Energies=           -288.871840
 Sum of electronic and thermal Energies=              -288.864511
 Sum of electronic and thermal Enthalpies=            -288.863567
 Sum of electronic and thermal Free Energies=         -288.902331

                     E (Thermal)             CV                S
                      KCal/Mol        Cal/Mol-Kelvin    Cal/Mol-Kelvin
 Total                   96.467             27.336             81.587
 Electronic               0.000              0.000              0.000
 Translational            0.889              2.981             39.373
 Rotational               0.889              2.981             26.769
 Vibrational             94.689             21.374             15.445
 Vibration     1          0.608              1.935              3.150
 Vibration     2          0.649              1.805              1.931
 Vibration     3          0.655              1.786              1.832
 Vibration     4          0.660              1.770              1.762
 Vibration     5          0.678              1.717              1.555
 Vibration     6          0.750              1.512              1.037
 Vibration     7          0.788              1.413              0.870
 Vibration     8          0.851              1.260              0.670
 Vibration     9          0.891              1.170              0.573
 Vibration    10          0.924              1.100              0.507

 Optimization completed.
    -- Stationary point found.
 Normal termination of Gaussian 16 at Fri Jun 10 11:16:22 2022.
