 Gaussian 16, Revision A.03,
 Gaussian 16:  ES64L-G16RevA.03 25-Dec-2016

 ----------------------------------------------------------------------
 # Opt=(TS, CalcFC, noeigentest, Z-matrix, MaxStep=10) geom=allcheckpoi
 nt guess=read Field=read NoSymm B3LYP/Def2TZVP freq=noraman pop=none
 ----------------------------------------------------------------------

 Structure from the checkpoint file:  "checkpoint.chk"
 -----------------
 ts_zmat_initalOpt
 -----------------
 Charge =  0 Multiplicity = 1

 SCF Done:  E(RB3LYP) =  -312.081506984     A.U. after   10 cycles
 SCF Done:  E(RB3LYP) =  -312.081521105     A.U. after    9 cycles
 Optimization completed.
    -- Stationary point found.
 Normal termination of Gaussian 16 at Fri Jun 10 03:29:14 2022.

 --------------------------------------------------------------------
 #N Geom=AllCheck Guess=TCheck SCRF=Check GenChk RB3LYP/def2TZVP Freq
 --------------------------------------------------------------------

 Structure from the checkpoint file:  "checkpoint.chk"
 -----------------
 ts_zmat_initalOpt
 -----------------
 Charge =  0 Multiplicity = 1

                          Input orientation:
 ---------------------------------------------------------------------
 Center     Atomic      Atomic             Coordinates (Angstroms)
 Number     Number       Type             X           Y           Z
 ---------------------------------------------------------------------
      1          6           0        0.000000    0.000000    0.000000
      2          6           0        0.000000    0.000000    1.539308
      3          6           0        1.488087    0.000000   -0.328696
      4          1           0       -0.491767   -0.880340   -0.418771
      5          1           0       -0.504122    0.872728   -0.420154
      6          6           0        1.488338    0.032717    1.862402
      7          6           0        2.198479    1.133881   -0.711103
      8          1           0       -0.462931   -0.893924    1.958546
      9          1           0       -0.526688    0.855177    1.965423
     10          1           0        1.933883   -0.962741   -0.551159
     11          6           0        1.787044    2.432052   -0.496724
     12          6           0        2.188371    1.185998    2.200968
     13          1           0        1.945049   -0.913936    2.125835
     14          1           0        3.244882    0.981086   -0.964351
     15          6           0        1.754458    2.467164    1.949728
     16          1           0        3.228632    1.055562    2.484678
     17          1           0        0.740817    2.681501   -0.400681
     18          1           0        2.444268    3.257195   -0.737803
     19          1           0        0.703383    2.690167    1.840287
     20          1           0        2.388329    3.310895    2.186703
 ---------------------------------------------------------------------

 SCF Done:  E(RB3LYP) =  -312.081521105     A.U. after    1 cycles

 Isotropic polarizability for W=    0.000000      102.53 Bohr**3.
 End of Minotr F.D. properties file   721 does not exist.

 ******    1 imaginary frequencies (negative Signs) ******

                      1                      2                      3
                      A                      A                      A
 Frequencies --   -422.8133                59.9019               258.5879
 Red. masses --      8.1417                 2.0972                 4.3088
 Frc consts  --      0.8576                 0.0044                 0.1698
 IR Inten    --      2.3443                 0.0203                 0.4702

                      4                      5                      6
                      A                      A                      A
 Frequencies --    260.6817               284.0532               301.2627
 Red. masses --      2.6269                 2.9480                 3.3496
 Frc consts  --      0.1052                 0.1401                 0.1791
 IR Inten    --      1.2520                 0.5138                 0.3910

                      7                      8                      9
                      A                      A                      A
 Frequencies --    369.7090               421.6350               530.6875
 Red. masses --      2.3251                 2.2753                 2.2831
 Frc consts  --      0.1872                 0.2383                 0.3788
 IR Inten    --      1.4895                 1.8217                 2.6693

                     10                     11                     12
                      A                      A                      A
 Frequencies --    574.4261               658.1060               685.8589
 Red. masses --      2.0416                 2.6412                 1.3305
 Frc consts  --      0.3969                 0.6740                 0.3687
 IR Inten    --      0.4059                 3.6282                 0.2311

                     13                     14                     15
                      A                      A                      A
 Frequencies --    718.0473               762.6937               785.8848
 Red. masses --      1.3121                 1.0989                 1.3284
 Frc consts  --      0.3986                 0.3766                 0.4834
 IR Inten    --     23.4249                 5.9964                 6.2693

                     16                     17                     18
                      A                      A                      A
 Frequencies --    862.5749               892.7318               911.5157
 Red. masses --      1.4873                 1.1550                 2.5066
 Frc consts  --      0.6520                 0.5423                 1.2271
 IR Inten    --     13.0230                 3.4300                 0.5079

                     19                     20                     21
                      A                      A                      A
 Frequencies --    942.0718               951.8679               993.7514
 Red. masses --      1.4628                 1.5278                 1.5204
 Frc consts  --      0.7649                 0.8156                 0.8846
 IR Inten    --      0.3293                 9.9360                 5.0455

                     22                     23                     24
                      A                      A                      A
 Frequencies --    995.8061              1010.6215              1023.9188
 Red. masses --      1.6735                 1.5266                 1.2974
 Frc consts  --      0.9777                 0.9186                 0.8014
 IR Inten    --      1.0080                 2.4160                18.2283

                     25                     26                     27
                      A                      A                      A
 Frequencies --   1042.0876              1088.9047              1148.3792
 Red. masses --      1.4238                 1.9381                 1.2975
 Frc consts  --      0.9110                 1.3540                 1.0082
 IR Inten    --      0.9355                 5.7936                 0.4286

                     28                     29                     30
                      A                      A                      A
 Frequencies --   1182.5540              1220.8689              1264.1359
 Red. masses --      1.6020                 1.5209                 1.1342
 Frc consts  --      1.3199                 1.3357                 1.0679
 IR Inten    --      0.5049                 0.3720                 0.0631

                     31                     32                     33
                      A                      A                      A
 Frequencies --   1288.4814              1296.0426              1301.0805
 Red. masses --      1.4699                 1.4353                 1.3366
 Frc consts  --      1.4378                 1.4205                 1.3331
 IR Inten    --      0.4077                 0.8633                 1.2275

                     34                     35                     36
                      A                      A                      A
 Frequencies --   1325.8965              1428.1994              1432.6756
 Red. masses --      1.4067                 1.3354                 1.3214
 Frc consts  --      1.4570                 1.6048                 1.5980
 IR Inten    --      3.1199                 1.3309                 2.3695

                     37                     38                     39
                      A                      A                      A
 Frequencies --   1487.7473              1497.0976              1506.2328
 Red. masses --      1.1670                 2.2460                 1.5309
 Frc consts  --      1.5219                 2.9660                 2.0463
 IR Inten    --      2.4766                 3.9481                 0.2776

                     40                     41                     42
                      A                      A                      A
 Frequencies --   1509.9806              1559.9695              1611.2508
 Red. masses --      1.1441                 1.9076                 3.7548
 Frc consts  --      1.5369                 2.7351                 5.7433
 IR Inten    --     15.7291                 2.4211                 6.8743

                     43                     44                     45
                      A                      A                      A
 Frequencies --   3036.5453              3054.2315              3066.5167
 Red. masses --      1.0585                 1.0604                 1.1050
 Frc consts  --      5.7503                 5.8279                 6.1221
 IR Inten    --     47.7896                40.6906                 5.9303

                     46                     47                     48
                      A                      A                      A
 Frequencies --   3094.5827              3113.4587              3133.0124
 Red. masses --      1.1057                 1.0848                 1.0854
 Frc consts  --      6.2389                 6.1954                 6.2774
 IR Inten    --     20.8397                18.4821                11.2598

                     49                     50                     51
                      A                      A                      A
 Frequencies --   3152.2088              3158.4501              3160.5463
 Red. masses --      1.0621                 1.0838                 1.0619
 Frc consts  --      6.2179                 6.3703                 6.2499
 IR Inten    --      7.6414                20.3094                11.8314

                     52                     53                     54
                      A                      A                      A
 Frequencies --   3169.0582              3230.9651              3243.2189
 Red. masses --      1.0895                 1.1160                 1.1141
 Frc consts  --      6.4464                 6.8642                 6.9043
 IR Inten    --     12.8528                 3.0101                18.6695

 - Thermochemistry -
 -------------------
 Temperature   298.150 Kelvin.  Pressure   1.00000 Atm.
 Atom     1 has atomic number  6 and mass  12.00000

 Molecular mass:   108.09390 amu.
 Principal axes and moments of inertia in atomic units:
                           1         2         3
     Eigenvalues --   725.38794 781.661751141.60417
           X            0.57840   0.02748   0.81529
           Y            0.81295   0.06341  -0.57888
           Z           -0.06761   0.99761   0.01433
 This molecule is an asymmetric top.
 Rotational symmetry number  1.
 Warning -- assumption of classical behavior for rotation
           may cause significant error
 Rotational temperatures (Kelvin)      0.11940     0.11081     0.07587
 Rotational constants (GHZ):           2.48797     2.30885     1.58088
    1 imaginary frequencies ignored.
 Zero-point vibrational energy     460925.8 (Joules/Mol)
                                  110.16391 (Kcal/Mol)
 Warning -- explicit consideration of   9 degrees of freedom as
           vibrations may cause significant error
 Vibrational temperatures:     86.19   372.05   375.06   408.69   433.45
          (Kelvin)            531.93   606.64   763.54   826.47   946.87
                              986.80  1033.11  1097.35  1130.71  1241.05
                             1284.44  1311.47  1355.43  1369.53  1429.79
                             1432.74  1454.06  1473.19  1499.33  1566.69
                             1652.26  1701.43  1756.56  1818.81  1853.84
                             1864.72  1871.96  1907.67  2054.86  2061.30
                             2140.54  2153.99  2167.13  2172.53  2244.45
                             2318.23  4368.91  4394.36  4412.03  4452.41
                             4479.57  4507.71  4535.33  4544.31  4547.32
                             4559.57  4648.64  4666.27

 Zero-point correction=                           0.175557 (Hartree/Particle)
 Thermal correction to Energy=                    0.183155
 Thermal correction to Enthalpy=                  0.184099
 Thermal correction to Gibbs Free Energy=         0.143881
 Sum of electronic and zero-point Energies=           -311.905964
 Sum of electronic and thermal Energies=              -311.898366
 Sum of electronic and thermal Enthalpies=            -311.897422
 Sum of electronic and thermal Free Energies=         -311.937640

                     E (Thermal)             CV                S
                      KCal/Mol        Cal/Mol-Kelvin    Cal/Mol-Kelvin
 Total                  114.931             30.518             84.645
 Electronic               0.000              0.000              0.000
 Translational            0.889              2.981             39.950
 Rotational               0.889              2.981             27.961
 Vibrational            113.154             24.557             16.733
 Vibration     1          0.597              1.973              4.460
 Vibration     2          0.667              1.748              1.671
 Vibration     3          0.669              1.745              1.657
 Vibration     4          0.682              1.703              1.509
 Vibration     5          0.693              1.671              1.410
 Vibration     6          0.742              1.534              1.081
 Vibration     7          0.784              1.423              0.886
 Vibration     8          0.886              1.182              0.586
 Vibration     9          0.931              1.087              0.496

 Optimization completed.
    -- Stationary point found.
 Normal termination of Gaussian 16 at Fri Jun 10 03:38:33 2022.
