 Gaussian 16, Revision A.03,
 Gaussian 16:  ES64L-G16RevA.03 25-Dec-2016

 --------------------------
 # sp B3LYP/Def2TZVP NoSymm
 --------------------------

 ----------------------------
 int_initalOpt_zmat_AlignedSp
 ----------------------------
 Symbolic Z-matrix:
 Charge =  0 Multiplicity = 1

                          Input orientation:
 ---------------------------------------------------------------------
 Center     Atomic      Atomic             Coordinates (Angstroms)
 Number     Number       Type             X           Y           Z
 ---------------------------------------------------------------------
      1          6           0        0.000000    0.000000    0.000000
      2          6           0        0.000000    0.000000    1.327797
      3          6           0        1.218797    0.000000   -0.901998
      4          6           0       -1.213266    0.024297   -0.926226
      5          1           0       -0.951854    0.022095    1.850174
      6          6           0        1.215974   -0.027450    2.204367
      7          8           0        0.724644   -0.057045   -2.238056
      8          1           0        1.872945   -0.861376   -0.751248
      9          1           0        1.816223    0.911020   -0.756178
     10          6           0       -0.578757    0.513287   -2.232870
     11          6           0       -2.409611    0.772193   -0.419867
     12          1           0       -1.516936   -1.020203   -1.087176
     13          1           0        2.143968   -0.026855    1.632526
     14          1           0        1.218401   -0.915956    2.843345
     15          1           0        1.234883    0.837756    2.873941
     16          1           0       -1.095245    0.174822   -3.130225
     17          1           0       -0.518884    1.610040   -2.248068
     18          6           0       -3.073943    1.727390   -1.059273
     19          1           0       -2.764412    0.465738    0.559929
     20          1           0       -2.790653    2.078454   -2.043885
     21          1           0       -3.939948    2.198746   -0.612255
 ---------------------------------------------------------------------

 SCF Done:  E(RB3LYP) =  -387.391423838     A.U. after   14 cycles

 Alpha  occ. eigenvalues --  -19.12781 -10.21971 -10.21703 -10.18887 -10.18274
 Alpha  occ. eigenvalues --  -10.18083 -10.17157 -10.17130 -10.16873  -1.04183
 Alpha  occ. eigenvalues --   -0.82923  -0.79059  -0.73403  -0.72612  -0.64677
 Alpha  occ. eigenvalues --   -0.62880  -0.56557  -0.53108  -0.50643  -0.48530
 Alpha  occ. eigenvalues --   -0.46631  -0.45152  -0.43154  -0.41954  -0.41340
 Alpha  occ. eigenvalues --   -0.40124  -0.38922  -0.38278  -0.36454  -0.34031
 Alpha  occ. eigenvalues --   -0.31955  -0.27092  -0.26316  -0.24461
 Alpha virt. eigenvalues --   -0.00091   0.00301   0.03545   0.05189   0.05549
 Alpha virt. eigenvalues --    0.06703   0.08173   0.08670   0.10044   0.10933
 Alpha virt. eigenvalues --    0.11158   0.11285   0.13107   0.13538   0.14031

 Mulliken charges:
               1
     1  C   -0.055393
     2  C   -0.119473
     3  C   -0.011424
     4  C    0.081411
     5  H    0.096489
     6  C   -0.338800
     7  O   -0.330019
     8  H    0.109246
     9  H    0.084908
    10  C   -0.039157
    11  C   -0.142417
    12  H    0.077465
    13  H    0.109850
    14  H    0.117961
    15  H    0.117146
    16  H    0.104545
    17  H    0.075471
    18  C   -0.261299
    19  H    0.101673
    20  H    0.109903
    21  H    0.111913
 Sum of Mulliken charges =  -0.00000

 Dipole moment (field-independent basis, Debye):
    X=             -0.5034    Y=              0.1769    Z=              1.3526  Tot=              1.4541
 Quadrupole moment (field-independent basis, Debye-Ang):
   XX=            -54.6882   YY=            -56.5312   ZZ=            -57.5590
   XY=             -0.5039   XZ=              2.8509   YZ=             -1.7234

 Normal termination of Gaussian 16 at Fri Jun 10 11:26:27 2022.
