 Gaussian 16, Revision A.03,
 Gaussian 16:  ES64L-G16RevA.03 25-Dec-2016

 --------------------------
 # sp B3LYP/Def2TZVP NoSymm
 --------------------------

 ---------------------------------
 ts_initalOptXYZ_aligned_AlignedSp
 ---------------------------------
 Symbolic Z-matrix:
 Charge =  0 Multiplicity = 1

                          Input orientation:
 ---------------------------------------------------------------------
 Center     Atomic      Atomic             Coordinates (Angstroms)
 Number     Number       Type             X           Y           Z
 ---------------------------------------------------------------------
      1          6           0        1.780179    0.477309    1.424031
      2          6           0        0.709499   -0.423621    1.447011
      3          6           0        2.080769   -0.345311   -0.850849
      4          6           0        2.470689    0.576979    0.246801
      5          6           0       -0.332501    0.531590   -0.476739
      6          6           0        0.690059    0.090549   -1.469579
      7          1           0        0.304469   -0.742261   -2.054259
      8          1           0        0.890699    0.939919   -2.124279
      9          1           0        2.815529   -0.333891   -1.655409
     10          1           0       -0.055621   -0.311201    2.206761
     11          6           0        1.935718   -1.767001   -0.275069
     12          1           0        1.679308   -2.462491   -1.075429
     13          1           0        2.892478   -2.087931    0.141291
     14          6           0        0.845628   -1.775641    0.808271
     15          1           0       -0.111682   -2.113441    0.408751
     16          1           0        1.097878   -2.481971    1.607881
     17          1           0        3.247689    1.315389    0.107821
     18          1           0        1.884969    1.233559    2.190371
     19          7           0       -0.259381    1.803229    0.014861
     20          8           0        0.814669    2.378489   -0.272349
     21          6           0       -1.633241   -0.163910   -0.392369
     22          8           0       -1.859141   -1.222110   -0.945789
     23          8           0       -2.540461    0.470480    0.369081
     24          6           0       -3.829241   -0.152280    0.453301
     25          1           0       -4.424441    0.501361    1.085201
     26          1           0       -4.279441   -0.241140   -0.535109
     27          1           0       -3.752051   -1.145360    0.896001
 ---------------------------------------------------------------------

 SCF Done:  E(RB3LYP) =  -669.437795004     A.U. after   17 cycles

 Alpha  occ. eigenvalues --  -19.16941 -19.13958 -19.11160 -14.38077 -10.30056
 Alpha  occ. eigenvalues --  -10.23233 -10.22463 -10.21685 -10.21646 -10.20286
 Alpha  occ. eigenvalues --  -10.19380 -10.19006 -10.18893 -10.18494  -1.10930
 Alpha  occ. eigenvalues --   -1.09974  -1.01762  -0.88531  -0.82296  -0.78481
 Alpha  occ. eigenvalues --   -0.77454  -0.72923  -0.70046  -0.63604  -0.62952
 Alpha  occ. eigenvalues --   -0.60878  -0.55272  -0.54185  -0.52130  -0.50460
 Alpha  occ. eigenvalues --   -0.49755  -0.48090  -0.47952  -0.45184  -0.44784
 Alpha  occ. eigenvalues --   -0.43588  -0.43473  -0.43169  -0.41932  -0.40894
 Alpha  occ. eigenvalues --   -0.39520  -0.39114  -0.37135  -0.36125  -0.35193
 Alpha  occ. eigenvalues --   -0.35021  -0.33848  -0.30910  -0.29436  -0.28485
 Alpha  occ. eigenvalues --   -0.25094  -0.20762
 Alpha virt. eigenvalues --   -0.10027  -0.04575   0.00814   0.02416   0.04042
 Alpha virt. eigenvalues --    0.05572   0.05663   0.06652   0.06817   0.07777
 Alpha virt. eigenvalues --    0.08419   0.08988   0.09703   0.10752   0.11387

 Mulliken charges:
               1
     1  C   -0.074895
     2  C   -0.077472
     3  C    0.116621
     4  C   -0.128104
     5  C   -0.031114
     6  C   -0.199315
     7  H    0.114756
     8  H    0.116505
     9  H    0.080643
    10  H    0.131014
    11  C   -0.234050
    12  H    0.105674
    13  H    0.101603
    14  C   -0.179680
    15  H    0.153663
    16  H    0.113247
    17  H    0.128975
    18  H    0.125240
    19  N    0.087389
    20  O   -0.325965
    21  C    0.288549
    22  O   -0.368526
    23  O   -0.238077
    24  C   -0.179920
    25  H    0.129134
    26  H    0.126121
    27  H    0.117983
 Sum of Mulliken charges =  -0.00000

 Dipole moment (field-independent basis, Debye):
    X=              1.5778    Y=             -2.8512    Z=              1.3992  Tot=              3.5463
 Quadrupole moment (field-independent basis, Debye-Ang):
   XX=            -71.6268   YY=            -92.8582   ZZ=            -78.9704
   XY=             -2.3314   XZ=             -3.3849   YZ=             -2.9364

 Normal termination of Gaussian 16 at Fri Jun 10 03:47:23 2022.
