 Gaussian 16, Revision A.03,
 Gaussian 16:  ES64L-G16RevA.03 25-Dec-2016

 ----------------------------------------------------------------------
 # Opt=(Z-matrix, MaxStep=10) B3LYP/Def2TZVP Field=read NoSymm freq=nor
 aman pop=none
 ----------------------------------------------------------------------

 ------------------
 int_zmat_initalOpt
 ------------------
 Symbolic Z-matrix:
 Charge =  0 Multiplicity = 1

 SCF Done:  E(RB3LYP) =  -195.367867760     A.U. after   13 cycles
 SCF Done:  E(RB3LYP) =  -195.367872552     A.U. after    8 cycles
 SCF Done:  E(RB3LYP) =  -195.367875319     A.U. after    8 cycles
 SCF Done:  E(RB3LYP) =  -195.367876457     A.U. after    8 cycles
 SCF Done:  E(RB3LYP) =  -195.367876660     A.U. after    7 cycles
 Optimization completed.
    -- Stationary point found.
 Normal termination of Gaussian 16 at Fri Jun 10 02:46:06 2022.

 --------------------------------------------------------------------
 #N Geom=AllCheck Guess=TCheck SCRF=Check GenChk RB3LYP/def2TZVP Freq
 --------------------------------------------------------------------

 Structure from the checkpoint file:  "checkpoint.chk"
 ------------------
 int_zmat_initalOpt
 ------------------
 Charge =  0 Multiplicity = 1

                          Input orientation:
 ---------------------------------------------------------------------
 Center     Atomic      Atomic             Coordinates (Angstroms)
 Number     Number       Type             X           Y           Z
 ---------------------------------------------------------------------
      1          6           0        0.000000    0.000000    0.000000
      2          6           0        0.000000    0.000000    1.516184
      3          6           0        1.296988    0.000000    0.760256
      4          1           0       -0.292991    0.918597   -0.490940
      5          1           0       -0.304235   -0.904189   -0.509901
      6          1           0        1.884594    0.907857    0.749078
      7          1           0        1.884938   -0.907841    0.770197
      8          6           0       -0.496202    1.179773    2.262693
      9          1           0       -0.286621   -0.947601    1.960045
     10          6           0        0.199920    2.260300    2.600551
     11          1           0       -1.545460    1.130079    2.544833
     12          1           0        1.253244    2.362290    2.368287
     13          1           0       -0.263724    3.080841    3.133290
 ---------------------------------------------------------------------

 SCF Done:  E(RB3LYP) =  -195.367876660     A.U. after    1 cycles

 Isotropic polarizability for W=    0.000000       58.25 Bohr**3.
 End of Minotr F.D. properties file   721 does not exist.

                      1                      2                      3
                      A                      A                      A
 Frequencies --     91.9845               268.1371               307.4620
 Red. masses --      2.0379                 2.6302                 1.8147
 Frc consts  --      0.0102                 0.1114                 0.1011
 IR Inten    --      0.5844                 0.3878                 0.9372

                      4                      5                      6
                      A                      A                      A
 Frequencies --    535.5880               665.8025               758.8282
 Red. masses --      2.0808                 1.6234                 1.6852
 Frc consts  --      0.3517                 0.4240                 0.5717
 IR Inten    --      0.2924                13.8536                 1.6729

                      7                      8                      9
                      A                      A                      A
 Frequencies --    813.6952               838.2227               909.0033
 Red. masses --      1.2633                 1.4414                 2.5209
 Frc consts  --      0.4928                 0.5967                 1.2272
 IR Inten    --      0.4537                 9.0027                 7.9983

                     10                     11                     12
                      A                      A                      A
 Frequencies --    934.3011               947.7668              1027.6703
 Red. masses --      1.3699                 2.4736                 1.1146
 Frc consts  --      0.7045                 1.3091                 0.6936
 IR Inten    --     41.2331                13.4387                17.2870

                     13                     14                     15
                      A                      A                      A
 Frequencies --   1052.9777              1082.1859              1096.7423
 Red. masses --      1.2058                 1.3433                 1.5545
 Frc consts  --      0.7877                 0.9269                 1.1017
 IR Inten    --      6.1459                 3.2815                 9.1518

                     16                     17                     18
                      A                      A                      A
 Frequencies --   1122.7113              1135.2199              1200.9289
 Red. masses --      1.4818                 1.2045                 1.3896
 Frc consts  --      1.1004                 0.9146                 1.1808
 IR Inten    --      1.2923                 0.6049                 2.3522

                     19                     20                     21
                      A                      A                      A
 Frequencies --   1227.1815              1335.4532              1404.5638
 Red. masses --      1.8951                 1.2620                 1.5173
 Frc consts  --      1.6815                 1.3261                 1.7636
 IR Inten    --      2.1018                 0.2659                 0.1313

                     22                     23                     24
                      A                      A                      A
 Frequencies --   1457.6202              1473.4607              1508.9201
 Red. masses --      1.2809                 1.0944                 1.3377
 Frc consts  --      1.6034                 1.3999                 1.7944
 IR Inten    --      3.6279                 3.6410                 2.4527

                     25                     26                     27
                      A                      A                      A
 Frequencies --   1700.3202              3119.1099              3130.4912
 Red. masses --      4.5156                 1.0838                 1.0540
 Frc consts  --      7.6918                 6.2124                 6.0861
 IR Inten    --     28.1890                12.8802                16.0069

                     28                     29                     30
                      A                      A                      A
 Frequencies --   3133.3201              3136.0098              3141.5078
 Red. masses --      1.0768                 1.0587                 1.0683
 Frc consts  --      6.2287                 6.1345                 6.2117
 IR Inten    --     21.7543                 7.0616                 3.9458

                     31                     32                     33
                      A                      A                      A
 Frequencies --   3206.7569              3215.8072              3221.5968
 Red. masses --      1.1191                 1.1154                 1.1162
 Frc consts  --      6.7806                 6.7964                 6.8254
 IR Inten    --      0.2909                20.4269                13.6108

 - Thermochemistry -
 -------------------
 Temperature   298.150 Kelvin.  Pressure   1.00000 Atm.
 Atom     1 has atomic number  6 and mass  12.00000

 Molecular mass:    68.06260 amu.
 Principal axes and moments of inertia in atomic units:
                           1         2         3
     Eigenvalues --   154.76910 492.71448 544.66157
           X           -0.19538   0.96374   0.18173
           Y            0.68272   0.26668  -0.68028
           Z            0.70408   0.00884   0.71007
 This molecule is an asymmetric top.
 Rotational symmetry number  1.
 Rotational temperatures (Kelvin)      0.55963     0.17579     0.15902
 Rotational constants (GHZ):          11.66086     3.66285     3.31351
 Zero-point vibrational energy     300270.7 (Joules/Mol)
                                   71.76643 (Kcal/Mol)
 Warning -- explicit consideration of   4 degrees of freedom as
           vibrations may cause significant error
 Vibrational temperatures:    132.35   385.79   442.37   770.59   957.94
          (Kelvin)           1091.78  1170.73  1206.02  1307.85  1344.25
                             1363.63  1478.59  1515.00  1557.02  1577.97
                             1615.33  1633.33  1727.87  1765.64  1921.42
                             2020.85  2097.19  2119.98  2171.00  2446.38
                             4487.70  4504.08  4508.15  4512.02  4519.93
                             4613.81  4626.83  4635.16

 Zero-point correction=                           0.114367 (Hartree/Particle)
 Thermal correction to Energy=                    0.119753
 Thermal correction to Enthalpy=                  0.120697
 Thermal correction to Gibbs Free Energy=         0.086068
 Sum of electronic and zero-point Energies=           -195.253510
 Sum of electronic and thermal Energies=              -195.248123
 Sum of electronic and thermal Enthalpies=            -195.247179
 Sum of electronic and thermal Free Energies=         -195.281808

                     E (Thermal)             CV                S
                      KCal/Mol        Cal/Mol-Kelvin    Cal/Mol-Kelvin
 Total                   75.146             19.363             72.883
 Electronic               0.000              0.000              0.000
 Translational            0.889              2.981             38.571
 Rotational               0.889              2.981             25.233
 Vibrational             73.369             13.402              9.079
 Vibration     1          0.602              1.955              3.617
 Vibration     2          0.673              1.732              1.608
 Vibration     3          0.697              1.660              1.376
 Vibration     4          0.891              1.171              0.575

 Optimization completed.
    -- Stationary point found.
 Normal termination of Gaussian 16 at Fri Jun 10 02:48:16 2022.
