 Gaussian 16, Revision A.03,
 Gaussian 16:  ES64L-G16RevA.03 25-Dec-2016

 -------------------------------------------------------------
 # Opt=(Z-matrix, MaxStep=10) B3LYP/Def2TZVP Field=read NoSymm
 -------------------------------------------------------------

 ------------------
 int_zmat_initalOpt
 ------------------
 Symbolic Z-matrix:
 Charge =  0 Multiplicity = 1

 SCF Done:  E(RB3LYP) =  -269.422819378     A.U. after   13 cycles
 SCF Done:  E(RB3LYP) =  -269.422829035     A.U. after    8 cycles
 SCF Done:  E(RB3LYP) =  -269.422833509     A.U. after    8 cycles
 SCF Done:  E(RB3LYP) =  -269.422834737     A.U. after    8 cycles
 SCF Done:  E(RB3LYP) =  -269.422835234     A.U. after    8 cycles
 Optimization completed.
    -- Stationary point found.

                         Z-Matrix orientation:
 ---------------------------------------------------------------------
 Center     Atomic      Atomic             Coordinates (Angstroms)
 Number     Number       Type             X           Y           Z
 ---------------------------------------------------------------------
      1          6           0        0.000000    0.000000    0.000000
      2          6           0        0.000000    0.000000    1.336100
      3          6           0        1.268504    0.000000   -0.711239
      4          1           0       -0.923722    0.068497   -0.561220
      5          1           0       -0.907655    0.072503    1.920540
      6          1           0        1.316990   -0.115816   -1.783935
      7          6           0        2.378952    0.301408   -0.021284
      8          6           0        1.315274   -0.130230    2.048142
      9          1           0        3.344368    0.494812   -0.471603
     10          8           0        2.392163    0.498578    1.315106
     11          1           0        1.309696    0.354618    3.022523
     12          1           0        1.585068   -1.187881    2.193241
 ---------------------------------------------------------------------

 Alpha  occ. eigenvalues --  -19.16063 -10.23235 -10.23000 -10.17793 -10.17158
 Alpha  occ. eigenvalues --  -10.16831  -1.07017  -0.81348  -0.77418  -0.66518
 Alpha  occ. eigenvalues --   -0.62625  -0.53381  -0.50978  -0.48566  -0.46242
 Alpha  occ. eigenvalues --   -0.43810  -0.40824  -0.37856  -0.36028  -0.33016
 Alpha  occ. eigenvalues --   -0.30116  -0.21056
 Alpha virt. eigenvalues --   -0.03324   0.04698   0.05542   0.07449   0.07912
 Alpha virt. eigenvalues --    0.09559   0.09760   0.11033   0.12877   0.16408
 Alpha virt. eigenvalues --    0.17668   0.19462   0.21294   0.22417   0.22876

 Mulliken charges:
               1
     1  C   -0.093737
     2  C   -0.175255
     3  C   -0.163199
     4  H    0.111263
     5  H    0.124796
     6  H    0.098793
     7  C    0.025819
     8  C    0.032382
     9  H    0.109952
    10  O   -0.267676
    11  H    0.120694
    12  H    0.076168
 Sum of Mulliken charges =  -0.00000

 Dipole moment (field-independent basis, Debye):
    X=             -0.7737    Y=             -0.3300    Z=              0.3920  Tot=              0.9279
 Quadrupole moment (field-independent basis, Debye-Ang):
   XX=            -36.4025   YY=            -38.7150   ZZ=            -31.3751
   XY=             -0.7713   XZ=             -1.9521   YZ=             -0.9377

 Normal termination of Gaussian 16 at Fri Mar 18 14:15:47 2022.
