 Gaussian 16, Revision A.03,
 Gaussian 16:  ES64L-G16RevA.03 25-Dec-2016

 --------------------------
 # sp B3LYP/Def2TZVP NoSymm
 --------------------------

 ---------------------------
 ts_initalOpt_zmat_AlignedSp
 ---------------------------
 Symbolic Z-matrix:
 Charge =  0 Multiplicity = 1

                          Input orientation:
 ---------------------------------------------------------------------
 Center     Atomic      Atomic             Coordinates (Angstroms)
 Number     Number       Type             X           Y           Z
 ---------------------------------------------------------------------
      1          6           0        0.000000    0.000000    0.000000
      2          6           0        0.000000    0.000000    1.388974
      3          6           0        1.200475    0.000000   -0.718145
      4          1           0       -0.922358    0.183636   -0.543164
      5          1           0       -0.793640    0.486231    1.942704
      6          1           0        1.178187    0.052041   -1.798228
      7          6           0        2.373730    0.475918   -0.090412
      8          6           0        1.152740   -0.446878    2.027642
      9          1           0        3.061441    1.038291   -0.733804
     10          8           0        2.657027    0.463768    1.133951
     11          1           0        1.328975   -0.226858    3.072832
     12          1           0        1.632170   -1.343140    1.659276
 ---------------------------------------------------------------------

 SCF Done:  E(RB3LYP) =  -269.391778042     A.U. after   14 cycles

 Alpha  occ. eigenvalues --  -19.14210 -10.25216 -10.22025 -10.19713 -10.17183
 Alpha  occ. eigenvalues --  -10.16810  -1.04687  -0.82889  -0.75669  -0.66725
 Alpha  occ. eigenvalues --   -0.60755  -0.52726  -0.50981  -0.47029  -0.45940
 Alpha  occ. eigenvalues --   -0.44222  -0.39713  -0.38200  -0.37609  -0.32592
 Alpha  occ. eigenvalues --   -0.28924  -0.21522
 Alpha virt. eigenvalues --   -0.06867   0.00076   0.04601   0.05564   0.07414
 Alpha virt. eigenvalues --    0.07938   0.09478   0.11463   0.12253   0.15880
 Alpha virt. eigenvalues --    0.18106   0.19678   0.20442   0.21643   0.22018

 Mulliken charges:
               1
     1  C   -0.019608
     2  C   -0.195587
     3  C   -0.258459
     4  H    0.114857
     5  H    0.109925
     6  H    0.100604
     7  C    0.161197
     8  C   -0.091809
     9  H    0.110702
    10  O   -0.297469
    11  H    0.134345
    12  H    0.131299
 Sum of Mulliken charges =  -0.00000

 Dipole moment (field-independent basis, Debye):
    X=             -0.9390    Y=             -0.0201    Z=             -0.5110  Tot=              1.0692
 Quadrupole moment (field-independent basis, Debye-Ang):
   XX=            -38.6767   YY=            -37.5518   ZZ=            -32.6157
   XY=             -1.3738   XZ=             -2.9865   YZ=             -1.8066

 Normal termination of Gaussian 16 at Fri Mar 18 14:05:39 2022.
