 Gaussian 16, Revision A.03,
 Gaussian 16:  ES64L-G16RevA.03 25-Dec-2016

 --------------------------
 # sp B3LYP/Def2TZVP NoSymm
 --------------------------

 ----------------------------
 int_initalOpt_zmat_AlignedSp
 ----------------------------
 Symbolic Z-matrix:
 Charge =  0 Multiplicity = 1

                          Input orientation:
 ---------------------------------------------------------------------
 Center     Atomic      Atomic             Coordinates (Angstroms)
 Number     Number       Type             X           Y           Z
 ---------------------------------------------------------------------
      1          6           0        0.000000    0.000000    0.000000
      2          6           0        0.000000    0.000000    1.336596
      3          6           0        1.268408    0.000000   -0.710121
      4          1           0       -0.922809    0.066654   -0.563011
      5          1           0       -0.907517    0.070458    1.921855
      6          1           0        1.318262   -0.124049   -1.781605
      7          6           0        2.376864    0.311564   -0.021541
      8          6           0        1.318214   -0.134451    2.042060
      9          1           0        3.341501    0.508803   -0.471116
     10          8           0        2.385097    0.514785    1.316391
     11          1           0        1.313760    0.331914    3.025884
     12          1           0        1.595922   -1.193236    2.165248
 ---------------------------------------------------------------------

 SCF Done:  E(RB3LYP) =  -269.422509590     A.U. after   13 cycles

 Alpha  occ. eigenvalues --  -19.16116 -10.23274 -10.23078 -10.17926 -10.17313
 Alpha  occ. eigenvalues --  -10.16645  -1.07060  -0.81408  -0.77439  -0.66565
 Alpha  occ. eigenvalues --   -0.62635  -0.53389  -0.51176  -0.48548  -0.46309
 Alpha  occ. eigenvalues --   -0.43838  -0.40954  -0.37855  -0.36089  -0.33068
 Alpha  occ. eigenvalues --   -0.30118  -0.21129
 Alpha virt. eigenvalues --   -0.03376   0.04616   0.05587   0.07510   0.07893
 Alpha virt. eigenvalues --    0.09293   0.10034   0.10888   0.12582   0.16187
 Alpha virt. eigenvalues --    0.17805   0.19367   0.21561   0.22452   0.22634

 Mulliken charges:
               1
     1  C   -0.088581
     2  C   -0.177922
     3  C   -0.167984
     4  H    0.112034
     5  H    0.112303
     6  H    0.112381
     7  C    0.026097
     8  C    0.035999
     9  H    0.121116
    10  O   -0.270098
    11  H    0.108343
    12  H    0.076311
 Sum of Mulliken charges =  -0.00000

 Dipole moment (field-independent basis, Debye):
    X=             -0.5844    Y=             -0.4186    Z=             -0.0240  Tot=              0.7192
 Quadrupole moment (field-independent basis, Debye-Ang):
   XX=            -35.9511   YY=            -38.7462   ZZ=            -31.9053
   XY=             -0.8378   XZ=             -2.2743   YZ=             -1.0402

 Normal termination of Gaussian 16 at Fri Mar 18 14:05:41 2022.
