 Gaussian 16, Revision A.03,
 Gaussian 16:  ES64L-G16RevA.03 25-Dec-2016

 ----------------------------------------------------------------------
 # Opt=(TS, CalcFC, noeigentest, Z-matrix, MaxStep=10) geom=allcheckpoi
 nt guess=read Field=read NoSymm B3LYP/Def2TZVP
 ----------------------------------------------------------------------

 Structure from the checkpoint file:  "checkpoint.chk"
 -----------------
 ts_zmat_initalOpt
 -----------------
 Charge =  0 Multiplicity = 1

 SCF Done:  E(RB3LYP) =  -269.396008412     A.U. after   10 cycles

  Exact polarizability:   0.000   0.000   0.000   0.000   0.000   0.000
 Approx polarizability: 133.545  13.726  67.883  -2.645  -6.536 129.743

 SCF Done:  E(RB3LYP) =  -269.396029268     A.U. after   12 cycles
 Optimization completed.
    -- Stationary point found.

                         Z-Matrix orientation:
 ---------------------------------------------------------------------
 Center     Atomic      Atomic             Coordinates (Angstroms)
 Number     Number       Type             X           Y           Z
 ---------------------------------------------------------------------
      1          6           0        0.000000    0.000000    0.000000
      2          6           0        0.000000    0.000000    1.383785
      3          6           0        1.208767    0.000000   -0.714542
      4          1           0       -0.922200    0.161650   -0.548431
      5          1           0       -0.817780    0.433954    1.944885
      6          1           0        1.191557    0.015634   -1.795441
      7          6           0        2.368561    0.489372   -0.093186
      8          6           0        1.166399   -0.426595    2.017158
      9          1           0        3.065128    1.030279   -0.745940
     10          8           0        2.647397    0.518782    1.142345
     11          1           0        1.332417   -0.218319    3.066794
     12          1           0        1.655939   -1.315689    1.643839
 ---------------------------------------------------------------------

 Alpha  occ. eigenvalues --  -19.15935 -10.26821 -10.23756 -10.20726 -10.18370
 Alpha  occ. eigenvalues --  -10.18020  -1.06096  -0.84157  -0.77119  -0.68158
 Alpha  occ. eigenvalues --   -0.62213  -0.54135  -0.52376  -0.48445  -0.47443
 Alpha  occ. eigenvalues --   -0.45765  -0.40961  -0.39539  -0.38888  -0.34318
 Alpha  occ. eigenvalues --   -0.30311  -0.22921
 Alpha virt. eigenvalues --   -0.08430  -0.01241   0.03170   0.04153   0.05538
 Alpha virt. eigenvalues --    0.06713   0.08487   0.10122   0.11716   0.13699
 Alpha virt. eigenvalues --    0.16371   0.18481   0.19224   0.20725   0.21181

 Mulliken charges:
               1
     1  C   -0.015370
     2  C   -0.186146
     3  C   -0.256465
     4  H    0.142357
     5  H    0.113103
     6  H    0.114412
     7  C    0.157848
     8  C   -0.073109
     9  H    0.082568
    10  O   -0.336721
    11  H    0.112887
    12  H    0.144636
 Sum of Mulliken charges =  -0.00000

 Dipole moment (field-independent basis, Debye):
    X=             -1.9846    Y=             -0.7675    Z=             -0.7875  Tot=              2.2688
 Quadrupole moment (field-independent basis, Debye-Ang):
   XX=            -41.0377   YY=            -37.8162   ZZ=            -32.7895
   XY=             -2.4828   XZ=             -3.8014   YZ=             -2.2309

 Normal termination of Gaussian 16 at Fri Mar 18 14:32:49 2022.
