 Gaussian 16, Revision A.03,
 Gaussian 16:  ES64L-G16RevA.03 25-Dec-2016

 ----------------------------------------------------------------------
 # Opt=(TS, CalcFC, noeigentest, Z-matrix, MaxStep=10) Field=read NoSym
 m B3LYP/Def2TZVP
 ----------------------------------------------------------------------

 -----------------
 ts_zmat_initalOpt
 -----------------
 Symbolic Z-matrix:
 Charge =  0 Multiplicity = 1

 SCF Done:  E(RB3LYP) =  -269.392753624     A.U. after   14 cycles

  Exact polarizability:   0.000   0.000   0.000   0.000   0.000   0.000
 Approx polarizability: 133.553  12.807  67.810  -3.125  -6.900 130.616

 SCF Done:  E(RB3LYP) =  -269.392772150     A.U. after   12 cycles
 Optimization completed.
    -- Stationary point found.

                         Z-Matrix orientation:
 ---------------------------------------------------------------------
 Center     Atomic      Atomic             Coordinates (Angstroms)
 Number     Number       Type             X           Y           Z
 ---------------------------------------------------------------------
      1          6           0        0.000000    0.000000    0.000000
      2          6           0        0.000000    0.000000    1.387181
      3          6           0        1.203074    0.000000   -0.717103
      4          1           0       -0.922270    0.176797   -0.544813
      5          1           0       -0.801918    0.468980    1.943523
      6          1           0        1.182329    0.040460   -1.797552
      7          6           0        2.371896    0.479829   -0.091444
      8          6           0        1.157210   -0.440514    2.024071
      9          1           0        3.062409    1.035329   -0.737909
     10          8           0        2.653879    0.480999    1.136631
     11          1           0        1.329935   -0.224606    3.070810
     12          1           0        1.639598   -1.334643    1.654128
 ---------------------------------------------------------------------

 Alpha  occ. eigenvalues --  -19.14780 -10.25746 -10.22592 -10.20041 -10.17564
 Alpha  occ. eigenvalues --  -10.17206  -1.05157  -0.83304  -0.76146  -0.67197
 Alpha  occ. eigenvalues --   -0.61237  -0.53190  -0.51437  -0.47496  -0.46437
 Alpha  occ. eigenvalues --   -0.44735  -0.40121  -0.38644  -0.38032  -0.33156
 Alpha  occ. eigenvalues --   -0.29386  -0.21977
 Alpha virt. eigenvalues --   -0.07375  -0.00351   0.04259   0.05143   0.06818
 Alpha virt. eigenvalues --    0.07501   0.09110   0.11007   0.12022   0.15154
 Alpha virt. eigenvalues --    0.17551   0.19464   0.19897   0.21336   0.21742

 Mulliken charges:
               1
     1  C   -0.017911
     2  C   -0.192088
     3  C   -0.258043
     4  H    0.124035
     5  H    0.110290
     6  H    0.104938
     7  C    0.160318
     8  C   -0.085544
     9  H    0.101415
    10  O   -0.310282
    11  H    0.127149
    12  H    0.135721
 Sum of Mulliken charges =  -0.00000

 Dipole moment (field-independent basis, Debye):
    X=             -1.2862    Y=             -0.2663    Z=             -0.6017  Tot=              1.4447
 Quadrupole moment (field-independent basis, Debye-Ang):
   XX=            -39.4537   YY=            -37.6294   ZZ=            -32.6716
   XY=             -1.7317   XZ=             -3.2543   YZ=             -1.9459

 Normal termination of Gaussian 16 at Fri Mar 18 14:16:38 2022.
