 Gaussian 16, Revision A.03,
 Gaussian 16:  ES64L-G16RevA.03 25-Dec-2016

 ----------------------------------------------------------------------
 # Opt=(TS, CalcFC, noeigentest, Z-matrix, MaxStep=10) geom=allcheckpoi
 nt guess=read Field=read NoSymm B3LYP/Def2TZVP
 ----------------------------------------------------------------------

 Structure from the checkpoint file:  "checkpoint.chk"
 -----------------
 ts_zmat_initalOpt
 -----------------
 Charge =  0 Multiplicity = 1

 SCF Done:  E(RB3LYP) =  -269.398277342     A.U. after   10 cycles

  Exact polarizability:   0.000   0.000   0.000   0.000   0.000   0.000
 Approx polarizability: 133.548  14.228  67.970  -2.366  -6.322 129.306

 SCF Done:  E(RB3LYP) =  -269.398299538     A.U. after   12 cycles
 Optimization completed.
    -- Stationary point found.

                         Z-Matrix orientation:
 ---------------------------------------------------------------------
 Center     Atomic      Atomic             Coordinates (Angstroms)
 Number     Number       Type             X           Y           Z
 ---------------------------------------------------------------------
      1          6           0        0.000000    0.000000    0.000000
      2          6           0        0.000000    0.000000    1.382155
      3          6           0        1.211853    0.000000   -0.713068
      4          1           0       -0.922195    0.153443   -0.550376
      5          1           0       -0.825443    0.415980    1.945427
      6          1           0        1.196586    0.002232   -1.794012
      7          6           0        2.366923    0.495333   -0.094108
      8          6           0        1.171328   -0.418454    2.013786
      9          1           0        3.066706    1.028389   -0.750189
     10          8           0        2.643840    0.540219    1.145143
     11          1           0        1.334129   -0.213469    3.064735
     12          1           0        1.665321   -1.304536    1.638794
 ---------------------------------------------------------------------

 Alpha  occ. eigenvalues --  -19.16522 -10.27367 -10.24358 -10.21084 -10.18794
 Alpha  occ. eigenvalues --  -10.18439  -1.06566  -0.84596  -0.77617  -0.68650
 Alpha  occ. eigenvalues --   -0.62707  -0.54616  -0.52860  -0.48929  -0.47954
 Alpha  occ. eigenvalues --   -0.46282  -0.41394  -0.39991  -0.39322  -0.34916
 Alpha  occ. eigenvalues --   -0.30776  -0.23412
 Alpha virt. eigenvalues --   -0.08977  -0.01705   0.02417   0.03557   0.04951
 Alpha virt. eigenvalues --    0.06349   0.08213   0.09695   0.11559   0.13016
 Alpha virt. eigenvalues --    0.15765   0.17852   0.18946   0.20407   0.20890

 Mulliken charges:
               1
     1  C   -0.014463
     2  C   -0.183671
     3  C   -0.255303
     4  H    0.151515
     5  H    0.115567
     6  H    0.119550
     7  C    0.156161
     8  C   -0.066880
     9  H    0.073009
    10  O   -0.350368
    11  H    0.105812
    12  H    0.149071
 Sum of Mulliken charges =  -0.00000

 Dipole moment (field-independent basis, Debye):
    X=             -2.3359    Y=             -1.0238    Z=             -0.8824  Tot=              2.6988
 Quadrupole moment (field-independent basis, Debye-Ang):
   XX=            -41.8442   YY=            -37.9301   ZZ=            -32.8501
   XY=             -2.8802   XZ=             -4.0799   YZ=             -2.3779

 Normal termination of Gaussian 16 at Fri Mar 18 14:50:23 2022.
