 Gaussian 16, Revision A.03,
 Gaussian 16:  ES64L-G16RevA.03 25-Dec-2016

 ----------------------------------------------------------------------
 # Opt=(TS, CalcFC, noeigentest, Z-matrix, MaxStep=10) Field=read NoSym
 m B3LYP/Def2TZVP freq=noraman pop=none
 ----------------------------------------------------------------------

 -----------------
 ts_zmat_initalOpt
 -----------------
 Symbolic Z-matrix:
 Charge =  0 Multiplicity = 1

 SCF Done:  E(RB3LYP) =  -387.288869820     A.U. after   14 cycles
 SCF Done:  E(RB3LYP) =  -387.288898935     A.U. after   11 cycles
 Optimization completed.
    -- Stationary point found.
 Normal termination of Gaussian 16 at Fri Jun 10 12:04:16 2022.

 --------------------------------------------------------------------
 #N Geom=AllCheck Guess=TCheck SCRF=Check GenChk RB3LYP/def2TZVP Freq
 --------------------------------------------------------------------

 Structure from the checkpoint file:  "checkpoint.chk"
 -----------------
 ts_zmat_initalOpt
 -----------------
 Charge =  0 Multiplicity = 1

                          Input orientation:
 ---------------------------------------------------------------------
 Center     Atomic      Atomic             Coordinates (Angstroms)
 Number     Number       Type             X           Y           Z
 ---------------------------------------------------------------------
      1          6           0        0.000000    0.000000    0.000000
      2          6           0        0.000000    0.000000    1.249139
      3          6           0        0.654050    0.000000   -1.312538
      4          6           0        0.744465   -0.344466    2.485316
      5          8           0        0.384418    1.225920   -2.012410
      6          1           0        0.325937   -0.845252   -1.927185
      7          1           0        1.739333   -0.070140   -1.190041
      8          1           0        1.738049   -0.736899    2.260978
      9          1           0        0.204639   -1.095320    3.066706
     10          1           0        0.855630    0.533192    3.126492
     11          6           0       -0.692531    1.968809   -1.425772
     12          6           0       -1.726943    1.023256   -0.895556
     13          1           0       -1.094918    2.570343   -2.245861
     14          1           0       -0.321802    2.649414   -0.651870
     15          6           0       -2.540445    1.140875    0.212313
     16          1           0       -2.099313    0.361784   -1.675645
     17          6           0       -2.114929    1.647499    1.455913
     18          1           0       -3.395960    0.472304    0.239620
     19          1           0       -1.170691    0.705973    1.628822
     20          1           0       -1.456433    2.510883    1.486634
     21          1           0       -2.817135    1.614751    2.282547
 ---------------------------------------------------------------------

 SCF Done:  E(RB3LYP) =  -387.288898935     A.U. after    1 cycles

 Isotropic polarizability for W=    0.000000      105.62 Bohr**3.
 End of Minotr F.D. properties file   721 does not exist.

 ******    1 imaginary frequencies (negative Signs) ******

                      1                      2                      3
                      A                      A                      A
 Frequencies --  -1183.7565               108.6274               116.5362
 Red. masses --      1.4505                 2.2779                 1.1698
 Frc consts  --      1.1976                 0.0158                 0.0094
 IR Inten    --      3.8391                 0.7739                 0.1368

                      4                      5                      6
                      A                      A                      A
 Frequencies --    150.3028               196.2279               210.9436
 Red. masses --      2.9521                 2.4389                 2.6767
 Frc consts  --      0.0393                 0.0553                 0.0702
 IR Inten    --      7.1860                 2.4018                 2.7199

                      7                      8                      9
                      A                      A                      A
 Frequencies --    260.5919               270.5241               352.5512
 Red. masses --      2.8146                 3.5476                 3.6334
 Frc consts  --      0.1126                 0.1530                 0.2661
 IR Inten    --      1.1757                 1.7538                 1.4726

                     10                     11                     12
                      A                      A                      A
 Frequencies --    408.7425               421.8453               483.1727
 Red. masses --      3.0021                 2.8022                 4.0357
 Frc consts  --      0.2955                 0.2938                 0.5551
 IR Inten    --      0.2656                 4.0954                 1.9534

                     13                     14                     15
                      A                      A                      A
 Frequencies --    567.7421               588.2862               646.9007
 Red. masses --      2.6481                 3.5558                 3.3021
 Frc consts  --      0.5029                 0.7251                 0.8142
 IR Inten    --      0.3382                 5.3907                 1.9120

                     16                     17                     18
                      A                      A                      A
 Frequencies --    715.5722               848.1721               854.4200
 Red. masses --      1.5615                 1.4090                 2.3321
 Frc consts  --      0.4711                 0.5972                 1.0031
 IR Inten    --     18.6440                19.5383                12.0433

                     19                     20                     21
                      A                      A                      A
 Frequencies --    897.0414               957.7326              1015.7362
 Red. masses --      4.5904                 1.9404                 1.6116
 Frc consts  --      2.1763                 1.0486                 0.9797
 IR Inten    --     41.8455                12.7072                 3.4064

                     22                     23                     24
                      A                      A                      A
 Frequencies --   1021.4158              1030.4154              1051.0036
 Red. masses --      1.6759                 1.5367                 3.1901
 Frc consts  --      1.0302                 0.9613                 2.0762
 IR Inten    --     15.1678                 2.3432                60.6594

                     25                     26                     27
                      A                      A                      A
 Frequencies --   1057.8710              1063.1867              1068.6602
 Red. masses --      1.4391                 1.4713                 1.7430
 Frc consts  --      0.9489                 0.9799                 1.1728
 IR Inten    --     10.7292                 8.7470                 7.0261

                     28                     29                     30
                      A                      A                      A
 Frequencies --   1117.2903              1139.1606              1199.6689
 Red. masses --      1.9426                 2.6235                 1.4156
 Frc consts  --      1.4288                 2.0059                 1.2004
 IR Inten    --     12.8334                14.4786                 1.8444

                     31                     32                     33
                      A                      A                      A
 Frequencies --   1227.6892              1250.6085              1307.2016
 Red. masses --      1.2086                 1.1727                 1.0948
 Frc consts  --      1.0732                 1.0806                 1.1022
 IR Inten    --     14.0875                 8.3997                12.1632

                     34                     35                     36
                      A                      A                      A
 Frequencies --   1329.1771              1351.1843              1378.3742
 Red. masses --      1.2042                 1.2355                 1.3068
 Frc consts  --      1.2535                 1.3290                 1.4628
 IR Inten    --      2.6790                 3.8541                29.4443

                     37                     38                     39
                      A                      A                      A
 Frequencies --   1412.1998              1437.8874              1460.4902
 Red. masses --      1.2085                 1.1300                 1.2037
 Frc consts  --      1.4200                 1.3765                 1.5128
 IR Inten    --      3.8962                 2.8518                 0.5591

                     40                     41                     42
                      A                      A                      A
 Frequencies --   1480.6425              1486.8333              1506.4291
 Red. masses --      1.0438                 1.0435                 1.0924
 Frc consts  --      1.3482                 1.3592                 1.4606
 IR Inten    --      8.8459                 9.1115                 0.3001

                     43                     44                     45
                      A                      A                      A
 Frequencies --   1514.1496              1515.6885              1621.1979
 Red. masses --      1.0943                 1.4712                 4.0623
 Frc consts  --      1.4781                 1.9913                 6.2906
 IR Inten    --      2.5478                 2.5409                25.6773

                     46                     47                     48
                      A                      A                      A
 Frequencies --   2048.6898              3003.1063              3008.2057
 Red. masses --      8.6239                 1.0588                 1.0616
 Frc consts  --     21.3260                 5.6260                 5.6601
 IR Inten    --     25.1487                87.7812                16.9732

                     49                     50                     51
                      A                      A                      A
 Frequencies --   3026.0873              3035.6750              3043.6200
 Red. masses --      1.0337                 1.1022                 1.1010
 Frc consts  --      5.5771                 5.9843                 6.0091
 IR Inten    --     39.8064                18.0880                35.6184

                     52                     53                     54
                      A                      A                      A
 Frequencies --   3080.2504              3090.9528              3105.5630
 Red. masses --      1.1000                 1.1035                 1.0840
 Frc consts  --      6.1489                 6.2115                 6.1599
 IR Inten    --      9.7360                12.2357                22.6544

                     55                     56                     57
                      A                      A                      A
 Frequencies --   3106.7282              3136.0390              3180.0413
 Red. masses --      1.0586                 1.0902                 1.1108
 Frc consts  --      6.0201                 6.3173                 6.6186
 IR Inten    --      6.2522                15.5933                13.6104

 - Thermochemistry -
 -------------------
 Temperature   298.150 Kelvin.  Pressure   1.00000 Atm.
 Atom     1 has atomic number  6 and mass  12.00000

 Molecular mass:   124.08882 amu.
 Principal axes and moments of inertia in atomic units:
                           1         2         3
     Eigenvalues --   910.942111203.139761875.31564
           X            0.04216   0.89219   0.44969
           Y           -0.28366  -0.42088   0.86163
           Z            0.95800  -0.16389   0.23533
 This molecule is an asymmetric top.
 Rotational symmetry number  1.
 Warning -- assumption of classical behavior for rotation
           may cause significant error
 Rotational temperatures (Kelvin)      0.09508     0.07199     0.04619
 Rotational constants (GHZ):           1.98118     1.50003     0.96237
    1 imaginary frequencies ignored.
 Zero-point vibrational energy     460353.3 (Joules/Mol)
                                  110.02707 (Kcal/Mol)
 Warning -- explicit consideration of  13 degrees of freedom as
           vibrations may cause significant error
 Vibrational temperatures:    156.29   167.67   216.25   282.33   303.50
          (Kelvin)            374.93   389.22   507.24   588.09   606.94
                              695.18   816.85   846.41   930.75  1029.55
                             1220.33  1229.32  1290.64  1377.96  1461.42
                             1469.59  1482.54  1512.16  1522.04  1529.69
                             1537.56  1607.53  1639.00  1726.06  1766.37
                             1799.35  1880.77  1912.39  1944.05  1983.17
                             2031.84  2068.80  2101.32  2130.31  2139.22
                             2167.42  2178.52  2180.74  2332.54  2947.61
                             4320.80  4328.14  4353.86  4367.66  4379.09
                             4431.79  4447.19  4468.21  4469.89  4512.06
                             4575.37

 Zero-point correction=                           0.175339 (Hartree/Particle)
 Thermal correction to Energy=                    0.184670
 Thermal correction to Enthalpy=                  0.185615
 Thermal correction to Gibbs Free Energy=         0.141461
 Sum of electronic and zero-point Energies=           -387.113560
 Sum of electronic and thermal Energies=              -387.104229
 Sum of electronic and thermal Enthalpies=            -387.103284
 Sum of electronic and thermal Free Energies=         -387.147438

                     E (Thermal)             CV                S
                      KCal/Mol        Cal/Mol-Kelvin    Cal/Mol-Kelvin
 Total                  115.882             35.212             92.929
 Electronic               0.000              0.000              0.000
 Translational            0.889              2.981             40.361
 Rotational               0.889              2.981             29.109
 Vibrational            114.105             29.251             23.458
 Vibration     1          0.606              1.942              3.293
 Vibration     2          0.608              1.936              3.157
 Vibration     3          0.618              1.902              2.668
 Vibration     4          0.636              1.845              2.168
 Vibration     5          0.643              1.824              2.035
 Vibration     6          0.669              1.745              1.658
 Vibration     7          0.674              1.727              1.593
 Vibration     8          0.729              1.570              1.155
 Vibration     9          0.773              1.451              0.931
 Vibration    10          0.784              1.423              0.886
 Vibration    11          0.839              1.287              0.702
 Vibration    12          0.924              1.101              0.509
 Vibration    13          0.945              1.057              0.470

 Optimization completed.
    -- Stationary point found.

 1\1\GINC-BHC0069\Freq\RB3LYP\def2TZVP\C8H12O1\DHANAWAY\10-Jun-2022\1\\
 #N Geom=AllCheck Guess=TCheck SCRF=Check GenChk RB3LYP/def2TZVP Freq\\
 ts_zmat_initalOpt\\0,1\C\C,1,R2\C,1,R3,2,A3\C,2,R4,1,A4,3,D4,0\O,3,R5,
 1,A5,2,D5,0\H,3,R6,1,A6,5,D6,0\H,3,R7,1,A7,5,D7,0\H,4,R8,2,A8,1,D8,0\H
 ,4,R9,2,A9,8,D9,0\H,4,R10,2,A10,8,D10,0\C,5,R11,3,A11,1,D11,0\C,11,R12
 ,5,A12,3,D12,0\H,11,R13,5,A13,12,D13,0\H,11,R14,5,A14,12,D14,0\C,12,R1
 5,11,A15,5,D15,0\H,12,R16,11,A16,15,D16,0\C,15,R17,12,A17,11,D17,0\H,1
 5,R18,12,A18,17,D18,0\H,17,R19,15,A19,12,D19,0\H,17,R20,15,A20,19,D20,

 Normal termination of Gaussian 16 at Fri Jun 10 12:16:57 2022.
