 Gaussian 16, Revision A.03,
 Gaussian 16:  ES64L-G16RevA.03 25-Dec-2016

 ----------------------------------------------------------------------
 # Opt=(TS, CalcFC, noeigentest, Z-matrix, MaxStep=10) geom=allcheckpoi
 nt guess=read Field=read NoSymm B3LYP/Def2TZVP freq=noraman pop=none
 ----------------------------------------------------------------------

 Structure from the checkpoint file:  "checkpoint.chk"
 -----------------
 ts_zmat_initalOpt
 -----------------
 Charge =  0 Multiplicity = 1

 SCF Done:  E(RB3LYP) =  -439.155237449     A.U. after   11 cycles
 SCF Done:  E(RB3LYP) =  -439.155253825     A.U. after   12 cycles
 Optimization completed.
    -- Stationary point found.

 1\1\GINC-BHC0069\FTS\RB3LYP\def2TZVP\C8H7N1O1\DHANAWAY\10-Jun-2022\1\\
 # Opt=(TS, CalcFC, noeigentest, Z-matrix, MaxStep=10) geom=allcheckpoi
 nt guess=read Field=read NoSymm B3LYP/Def2TZVP freq=noraman pop=none\\
 ts_zmat_initalOpt\\0,1\C\C,1,R2\C,1,R3,2,A3\N,1,R4,2,A4,3,D4,0\C,3,R5,
 1,A5,2,D5,0\H,2,R6,1,A6,3,D6,0\H,3,R7,1,A7,5,D7,0\C,2,R8,1,A8,6,D8,0\C
 ,4,R9,1,A9,2,D9,0\H,4,R10,1,A10,9,D10,0\C,5,R11,3,A11,1,D11,0\H,5,R12,
 3,A12,11,D12,0\H,8,R13,2,A13,1,D13,0\H,9,R14,4,A14,1,D14,0\C,11,R15,5,
 A15,3,D15,0\H,11,R16,5,A16,15,D16,0\O,15,R17,11,A17,5,D17,0\\R2=1.4121

 Normal termination of Gaussian 16 at Fri Jun 10 13:38:25 2022.

 --------------------------------------------------------------------
 #N Geom=AllCheck Guess=TCheck SCRF=Check GenChk RB3LYP/def2TZVP Freq
 --------------------------------------------------------------------

 Structure from the checkpoint file:  "checkpoint.chk"
 -----------------
 ts_zmat_initalOpt
 -----------------
 Charge =  0 Multiplicity = 1

                          Input orientation:
 ---------------------------------------------------------------------
 Center     Atomic      Atomic             Coordinates (Angstroms)
 Number     Number       Type             X           Y           Z
 ---------------------------------------------------------------------
      1          6           0        0.000000    0.000000    0.000000
      2          6           0        0.000000    0.000000    1.412137
      3          6           0        1.160416    0.000000   -0.821537
      4          7           0       -1.285945    0.143367   -0.408544
      5          6           0        2.290017    0.584150   -0.340165
      6          1           0        0.723101   -0.583059    1.965724
      7          1           0        1.118341   -0.346787   -1.845215
      8          6           0       -1.374931    0.149189    1.817968
      9          6           0       -2.126589    0.239497    0.686464
     10          1           0       -1.573207    0.235308   -1.370659
     11          6           0        2.456896    1.243119    0.919209
     12          1           0        3.146741    0.633266   -1.001400
     13          1           0       -1.752875    0.154925    2.826922
     14          1           0       -3.188467    0.354368    0.549258
     15          6           0        1.569298    1.382763    1.940303
     16          1           0        3.330041    1.879990    1.038001
     17          8           0        1.377410    1.776836    3.045995
 ---------------------------------------------------------------------

 SCF Done:  E(RB3LYP) =  -439.155253825     A.U. after    1 cycles

 Isotropic polarizability for W=    0.000000      107.72 Bohr**3.
 End of Minotr F.D. properties file   721 does not exist.

 ******    1 imaginary frequencies (negative Signs) ******

                      1                      2                      3
                      A                      A                      A
 Frequencies --   -374.7502               109.4759               138.0856
 Red. masses --      6.9650                 5.9363                 4.6150
 Frc consts  --      0.5763                 0.0419                 0.0518
 IR Inten    --    189.1540                 1.6967                 2.0102

                      4                      5                      6
                      A                      A                      A
 Frequencies --    270.3059               289.7906               324.8480
 Red. masses --      4.7559                 3.3816                 7.6015
 Frc consts  --      0.2047                 0.1673                 0.4726
 IR Inten    --     24.0805                 3.1633                 7.3597

                      7                      8                      9
                      A                      A                      A
 Frequencies --    461.0732               513.6635               547.4801
 Red. masses --      4.6815                 4.4163                 2.9429
 Frc consts  --      0.5864                 0.6865                 0.5197
 IR Inten    --      9.8441                 3.1012                 0.4527

                     10                     11                     12
                      A                      A                      A
 Frequencies --    597.5575               611.6433               627.5459
 Red. masses --      1.7131                 2.5967                 2.3201
 Frc consts  --      0.3604                 0.5724                 0.5383
 IR Inten    --     34.1846                 6.7485                 8.5327

                     13                     14                     15
                      A                      A                      A
 Frequencies --    673.7979               705.5806               738.4248
 Red. masses --      1.7158                 1.7081                 1.8821
 Frc consts  --      0.4590                 0.5010                 0.6046
 IR Inten    --     34.8582                90.2416                32.8860

                     16                     17                     18
                      A                      A                      A
 Frequencies --    781.1189               800.6620               849.5394
 Red. masses --      1.6509                 2.0269                 2.7874
 Frc consts  --      0.5935                 0.7656                 1.1853
 IR Inten    --      5.5714                81.6999                35.3720

                     19                     20                     21
                      A                      A                      A
 Frequencies --    853.2714               897.4261               973.3841
 Red. masses --      1.6138                 5.3660                 1.7632
 Frc consts  --      0.6923                 2.5463                 0.9843
 IR Inten    --      9.3649                 9.6835                 7.1217

                     22                     23                     24
                      A                      A                      A
 Frequencies --    990.1296               991.6265              1040.2080
 Red. masses --      2.3651                 1.5294                 1.3745
 Frc consts  --      1.3661                 0.8860                 0.8763
 IR Inten    --      5.2899                 5.6304                 6.1795

                     25                     26                     27
                      A                      A                      A
 Frequencies --   1103.1676              1127.0563              1142.3942
 Red. masses --      2.0490                 1.6483                 1.4262
 Frc consts  --      1.4692                 1.2336                 1.0966
 IR Inten    --     10.8553                10.1905                 8.9775

                     28                     29                     30
                      A                      A                      A
 Frequencies --   1209.4215              1248.5077              1289.2519
 Red. masses --      1.1355                 1.9454                 1.7229
 Frc consts  --      0.9786                 1.7866                 1.6872
 IR Inten    --     10.2796                 1.9617                 3.7053

                     31                     32                     33
                      A                      A                      A
 Frequencies --   1391.1093              1409.8865              1437.0158
 Red. masses --      1.8849                 2.6760                 3.3011
 Frc consts  --      2.1491                 3.1341                 4.0164
 IR Inten    --      7.8784                 6.9489                46.3526

                     34                     35                     36
                      A                      A                      A
 Frequencies --   1460.2482              1533.6556              1591.8001
 Red. masses --      2.1303                 4.7696                 4.7372
 Frc consts  --      2.6763                 6.6097                 7.0720
 IR Inten    --      4.4301                 9.5065               117.5088

                     37                     38                     39
                      A                      A                      A
 Frequencies --   1603.0733              1922.9927              3123.6555
 Red. masses --      3.6887                12.5432                 1.0838
 Frc consts  --      5.5851                27.3285                 6.2304
 IR Inten    --     16.5123               810.8801                15.1571

                     40                     41                     42
                      A                      A                      A
 Frequencies --   3178.3377              3186.2657              3200.3886
 Red. masses --      1.0875                 1.0900                 1.0939
 Frc consts  --      6.4724                 6.5199                 6.6015
 IR Inten    --      1.6563                 2.6643                 1.0624

                     43                     44                     45
                      A                      A                      A
 Frequencies --   3238.1791              3264.3860              3614.9598
 Red. masses --      1.0906                 1.1027                 1.0810
 Frc consts  --      6.7379                 6.9230                 8.3227
 IR Inten    --      8.8175                 2.7317               123.5197

 - Thermochemistry -
 -------------------
 Temperature   298.150 Kelvin.  Pressure   1.00000 Atm.
 Atom     1 has atomic number  6 and mass  12.00000

 Molecular mass:   133.05276 amu.
 Principal axes and moments of inertia in atomic units:
                           1         2         3
     Eigenvalues --   837.931541344.613322078.56457
           X            0.91464  -0.33867  -0.22076
           Y            0.30837   0.23136   0.92270
           Z            0.26142   0.91202  -0.31605
 This molecule is an asymmetric top.
 Rotational symmetry number  1.
 Warning -- assumption of classical behavior for rotation
           may cause significant error
 Rotational temperatures (Kelvin)      0.10337     0.06442     0.04167
 Rotational constants (GHZ):           2.15381     1.34220     0.86826
    1 imaginary frequencies ignored.
 Zero-point vibrational energy     341308.9 (Joules/Mol)
                                   81.57478 (Kcal/Mol)
 Warning -- explicit consideration of  10 degrees of freedom as
           vibrations may cause significant error
 Vibrational temperatures:    157.51   198.67   388.91   416.94   467.38
          (Kelvin)            663.38   739.05   787.70   859.75   880.02
                              902.90   969.44  1015.17  1062.43  1123.86
                             1151.97  1222.30  1227.67  1291.20  1400.48
                             1424.58  1426.73  1496.63  1587.21  1621.58
                             1643.65  1740.09  1796.32  1854.95  2001.50
                             2028.51  2067.55  2100.97  2206.59  2290.25
                             2306.46  2766.76  4494.24  4572.92  4584.33
                             4604.65  4659.02  4696.72  5201.12

 Zero-point correction=                           0.129998 (Hartree/Particle)
 Thermal correction to Energy=                    0.137589
 Thermal correction to Enthalpy=                  0.138533
 Thermal correction to Gibbs Free Energy=         0.097647
 Sum of electronic and zero-point Energies=           -439.025256
 Sum of electronic and thermal Energies=              -439.017665
 Sum of electronic and thermal Enthalpies=            -439.016721
 Sum of electronic and thermal Free Energies=         -439.057607

                     E (Thermal)             CV                S
                      KCal/Mol        Cal/Mol-Kelvin    Cal/Mol-Kelvin
 Total                   86.338             30.421             86.052
 Electronic               0.000              0.000              0.000
 Translational            0.889              2.981             40.569
 Rotational               0.889              2.981             29.239
 Vibrational             84.561             24.459             16.243
 Vibration     1          0.606              1.942              3.278
 Vibration     2          0.614              1.915              2.830
 Vibration     3          0.674              1.728              1.594
 Vibration     4          0.686              1.693              1.475
 Vibration     5          0.709              1.626              1.286
 Vibration     6          0.819              1.336              0.763
 Vibration     7          0.869              1.220              0.625
 Vibration     8          0.903              1.145              0.549
 Vibration     9          0.955              1.037              0.454
 Vibration    10          0.971              1.007              0.430

 Optimization completed.
    -- Stationary point found.
 Normal termination of Gaussian 16 at Fri Jun 10 13:50:12 2022.
