 Gaussian 16, Revision A.03,
 Gaussian 16:  ES64L-G16RevA.03 25-Dec-2016

 ----------------------------------------------------------------------
 # Opt=(Z-matrix, MaxStep=10) B3LYP/Def2TZVP Field=read NoSymm freq=nor
 aman pop=none
 ----------------------------------------------------------------------

 ------------------
 int_zmat_initalOpt
 ------------------
 Symbolic Z-matrix:
 Charge =  0 Multiplicity = 1

 SCF Done:  E(RB3LYP) =  -210.251806436     A.U. after   12 cycles
 SCF Done:  E(RB3LYP) =  -210.251813465     A.U. after    7 cycles
 SCF Done:  E(RB3LYP) =  -210.251814075     A.U. after    7 cycles
 Optimization completed.
    -- Stationary point found.
 Normal termination of Gaussian 16 at Fri Jun 10 22:28:45 2022.

 --------------------------------------------------------------------
 #N Geom=AllCheck Guess=TCheck SCRF=Check GenChk RB3LYP/def2TZVP Freq
 --------------------------------------------------------------------

 Structure from the checkpoint file:  "checkpoint.chk"
 ------------------
 int_zmat_initalOpt
 ------------------
 Charge =  0 Multiplicity = 1

                          Input orientation:
 ---------------------------------------------------------------------
 Center     Atomic      Atomic             Coordinates (Angstroms)
 Number     Number       Type             X           Y           Z
 ---------------------------------------------------------------------
      1          1           0        0.000000    0.000000    0.000000
      2          6           0        0.000000    0.000000    1.077286
      3          6           0        1.140880    0.000000    1.924030
      4          6           0       -1.111499    0.005704    1.884025
      5          1           0        2.172903   -0.002397    1.615249
      6          6           0        0.690709    0.005306    3.221237
      7          7           0       -0.680484    0.008463    3.186461
      8          1           0       -2.160343    0.009677    1.641185
      9          1           0        1.227633    0.008278    4.154331
     10          1           0       -1.277546    0.014642    3.992766
 ---------------------------------------------------------------------

 SCF Done:  E(RB3LYP) =  -210.251814075     A.U. after    1 cycles

 Isotropic polarizability for W=    0.000000       49.84 Bohr**3.
 End of Minotr F.D. properties file   721 does not exist.

                      1                      2                      3
                      A                      A                      A
 Frequencies --    436.4613               628.0731               639.8423
 Red. masses --      1.4023                 3.1943                 2.3782
 Frc consts  --      0.1574                 0.7424                 0.5736
 IR Inten    --     71.0418                 0.0015                 0.1448

                      4                      5                      6
                      A                      A                      A
 Frequencies --    679.9844               727.7809               826.5004
 Red. masses --      1.2971                 1.2007                 1.2270
 Frc consts  --      0.3534                 0.3747                 0.4938
 IR Inten    --      0.5455               154.5020                 4.1186

                      7                      8                      9
                      A                      A                      A
 Frequencies --    878.4849               880.2866               904.1690
 Red. masses --      1.3155                 4.8219                 4.0474
 Frc consts  --      0.5982                 2.2015                 1.9495
 IR Inten    --      0.0448                 1.6500                 0.3923

                     10                     11                     12
                      A                      A                      A
 Frequencies --   1035.9474              1069.0700              1090.9408
 Red. masses --      1.4470                 1.4031                 1.5694
 Frc consts  --      0.9149                 0.9448                 1.1005
 IR Inten    --     32.3801                28.4544                 6.5860

                     13                     14                     15
                      A                      A                      A
 Frequencies --   1156.3577              1174.2985              1316.2863
 Red. masses --      1.2566                 3.5549                 1.3709
 Frc consts  --      0.9900                 2.8882                 1.3995
 IR Inten    --      1.4301                 3.3374                 0.9098

                     16                     17                     18
                      A                      A                      A
 Frequencies --   1418.3085              1448.6791              1499.5552
 Red. masses --      4.2108                 2.9405                 2.6453
 Frc consts  --      4.9907                 3.6360                 3.5047
 IR Inten    --      3.9960                 6.2028                 7.3514

                     19                     20                     21
                      A                      A                      A
 Frequencies --   1577.4333              3239.3067              3248.7801
 Red. masses --      3.0443                 1.0882                 1.0923
 Frc consts  --      4.4631                 6.7276                 6.7926
 IR Inten    --      2.6648                 0.8954                 1.8937

                     22                     23                     24
                      A                      A                      A
 Frequencies --   3261.2674              3267.8903              3670.0740
 Red. masses --      1.0994                 1.1065                 1.0803
 Frc consts  --      6.8893                 6.9623                 8.5734
 IR Inten    --      3.5247                 0.0644                54.1293

 - Thermochemistry -
 -------------------
 Temperature   298.150 Kelvin.  Pressure   1.00000 Atm.
 Atom     1 has atomic number  1 and mass   1.00783

 Molecular mass:    67.04220 amu.
 Principal axes and moments of inertia in atomic units:
                           1         2         3
     Eigenvalues --   196.36842 199.13993 395.50819
           X           -0.59884   0.80087   0.00258
           Y            0.00405  -0.00020   0.99999
           Z            0.80086   0.59884  -0.00312
 This molecule is an asymmetric top.
 Rotational symmetry number  1.
 Rotational temperatures (Kelvin)      0.44108     0.43494     0.21899
 Rotational constants (GHZ):           9.19059     9.06268     4.56309
 Zero-point vibrational energy     215781.1 (Joules/Mol)
                                   51.57291 (Kcal/Mol)
 Warning -- explicit consideration of   1 degrees of freedom as
           vibrations may cause significant error
 Vibrational temperatures:    627.97   903.66   920.59   978.35  1047.11
          (Kelvin)           1189.15  1263.94  1266.54  1300.90  1490.50
                             1538.15  1569.62  1663.74  1689.55  1893.84
                             2040.63  2084.33  2157.53  2269.57  4660.64
                             4674.27  4692.24  4701.77  5280.42

 Zero-point correction=                           0.082187 (Hartree/Particle)
 Thermal correction to Energy=                    0.086200
 Thermal correction to Enthalpy=                  0.087144
 Thermal correction to Gibbs Free Energy=         0.055773
 Sum of electronic and zero-point Energies=           -210.169627
 Sum of electronic and thermal Energies=              -210.165614
 Sum of electronic and thermal Enthalpies=            -210.164670
 Sum of electronic and thermal Free Energies=         -210.196042

                     E (Thermal)             CV                S
                      KCal/Mol        Cal/Mol-Kelvin    Cal/Mol-Kelvin
 Total                   54.091             14.933             66.026
 Electronic               0.000              0.000              0.000
 Translational            0.889              2.981             38.526
 Rotational               0.889              2.981             24.251
 Vibrational             52.314              8.971              3.249
 Vibration     1          0.797              1.391              0.838

                       ! Non-Optimized Parameters !
 Normal termination of Gaussian 16 at Fri Jun 10 22:30:12 2022.
