 Gaussian 16, Revision A.03,
 Gaussian 16:  ES64L-G16RevA.03 25-Dec-2016

 ----------------------------------------------------------------------
 # Opt=(Z-matrix, MaxStep=10) B3LYP/Def2TZVP geom=allcheckpoint guess=r
 ead Field=read NoSymm freq=noraman pop=none
 ----------------------------------------------------------------------

 Structure from the checkpoint file:  "checkpoint.chk"
 ------------------
 int_zmat_initalOpt
 ------------------
 Charge =  0 Multiplicity = 1

 SCF Done:  E(RB3LYP) =  -573.635334735     A.U. after   11 cycles
 SCF Done:  E(RB3LYP) =  -573.635426393     A.U. after   10 cycles
 SCF Done:  E(RB3LYP) =  -573.635445305     A.U. after   11 cycles
 SCF Done:  E(RB3LYP) =  -573.635470472     A.U. after   10 cycles
 SCF Done:  E(RB3LYP) =  -573.635474031     A.U. after    8 cycles
 SCF Done:  E(RB3LYP) =  -573.635476824     A.U. after    8 cycles
 SCF Done:  E(RB3LYP) =  -573.635478755     A.U. after    8 cycles
 SCF Done:  E(RB3LYP) =  -573.635480143     A.U. after    9 cycles
 SCF Done:  E(RB3LYP) =  -573.635481442     A.U. after    8 cycles
 SCF Done:  E(RB3LYP) =  -573.635443651     A.U. after   12 cycles
 SCF Done:  E(RB3LYP) =  -573.635482986     A.U. after    9 cycles
 SCF Done:  E(RB3LYP) =  -573.635483130     A.U. after   10 cycles
 SCF Done:  E(RB3LYP) =  -573.635483996     A.U. after    8 cycles
 SCF Done:  E(RB3LYP) =  -573.635484404     A.U. after    7 cycles
 SCF Done:  E(RB3LYP) =  -573.635444208     A.U. after   11 cycles
 SCF Done:  E(RB3LYP) =  -573.635484454     A.U. after   11 cycles
 SCF Done:  E(RB3LYP) =  -573.635484898     A.U. after    8 cycles
 SCF Done:  E(RB3LYP) =  -573.635484990     A.U. after    7 cycles
 Optimization completed.
    -- Stationary point found.
 Normal termination of Gaussian 16 at Sun Jun 12 04:01:05 2022.

 --------------------------------------------------------------------
 #N Geom=AllCheck Guess=TCheck SCRF=Check GenChk RB3LYP/def2TZVP Freq
 --------------------------------------------------------------------

 Structure from the checkpoint file:  "checkpoint.chk"
 ------------------
 int_zmat_initalOpt
 ------------------
 Charge =  0 Multiplicity = 1

                          Input orientation:
 ---------------------------------------------------------------------
 Center     Atomic      Atomic             Coordinates (Angstroms)
 Number     Number       Type             X           Y           Z
 ---------------------------------------------------------------------
      1          6           0        0.000000    0.000000    0.000000
      2          6           0        0.000000    0.000000    1.482352
      3          6           0        1.267728    0.000000   -0.413419
      4          1           0       -0.910009    0.047871   -0.575545
      5          8           0       -0.923039   -0.017486    2.243937
      6          6           0        2.145029   -0.093066    0.779995
      7          1           0        1.670919    0.016049   -1.413185
      8          8           0        1.310711   -0.048824    1.907779
      9          8           0        3.318129   -0.250798    0.871675
     10          6           0       -0.169283    3.590462   -0.104684
     11          6           0        0.500091    3.413115    1.051885
     12          6           0        0.803367    3.549733   -1.245778
     13          1           0       -1.223967    3.796113   -0.214555
     14          6           0        1.917784    3.214954    0.764151
     15          1           0        0.074234    3.439224    2.045154
     16          1           0        0.543194    2.812873   -2.015066
     17          1           0        0.839056    4.515345   -1.766927
     18          6           0        2.111978    3.268401   -0.569151
     19          1           0        2.685673    3.080591    1.512602
     20          1           0        3.057978    3.197762   -1.085169
 ---------------------------------------------------------------------

 SCF Done:  E(RB3LYP) =  -573.635484990     A.U. after    1 cycles

 Isotropic polarizability for W=    0.000000      116.20 Bohr**3.
 End of Minotr F.D. properties file   721 does not exist.

                      1                      2                      3
                      A                      A                      A
 Frequencies --     18.4138                35.8060                51.5736
 Red. masses --      4.0679                 6.4896                 5.8852
 Frc consts  --      0.0008                 0.0049                 0.0092
 IR Inten    --      0.5260                 0.2519                 0.0607

                      4                      5                      6
                      A                      A                      A
 Frequencies --     60.8794                82.4846                87.0143
 Red. masses --      4.3295                 4.6250                 4.0620
 Frc consts  --      0.0095                 0.0185                 0.0181
 IR Inten    --     10.3523                 4.8993                 6.5359

                      7                      8                      9
                      A                      A                      A
 Frequencies --    174.5174               287.4277               353.8494
 Red. masses --     15.2549                 4.0972                 1.4966
 Frc consts  --      0.2737                 0.1994                 0.1104
 IR Inten    --      7.2769                 0.4186                 7.9748

                     10                     11                     12
                      A                      A                      A
 Frequencies --    404.8391               527.8265               565.8570
 Red. masses --     12.7271                 2.4100                 4.6834
 Frc consts  --      1.2290                 0.3956                 0.8835
 IR Inten    --      8.8484                 0.0269                 3.5232

                     13                     14                     15
                      A                      A                      A
 Frequencies --    634.1809               648.0737               689.0145
 Red. masses --      7.2751                 2.5288                 1.2022
 Frc consts  --      1.7239                 0.6258                 0.3363
 IR Inten    --      3.2391                11.8835                71.8033

                     16                     17                     18
                      A                      A                      A
 Frequencies --    704.3285               732.4455               779.4323
 Red. masses --      8.4524                 1.2566                 6.5887
 Frc consts  --      2.4705                 0.3972                 2.3583
 IR Inten    --     40.6826                 3.5884                 0.5115

                     19                     20                     21
                      A                      A                      A
 Frequencies --    818.5478               822.2581               847.4190
 Red. masses --      4.9908                 5.5676                 2.0620
 Frc consts  --      1.9702                 2.2179                 0.8725
 IR Inten    --      6.2793                 3.5050                63.5680

                     22                     23                     24
                      A                      A                      A
 Frequencies --    871.3782               904.5379               917.7062
 Red. masses --      9.3645                 9.7654                 1.8251
 Frc consts  --      4.1893                 4.7075                 0.9056
 IR Inten    --     29.2238                99.4839                41.0984

                     25                     26                     27
                      A                      A                      A
 Frequencies --    929.0382               961.0247               969.0594
 Red. masses --      2.0680                 1.4000                 1.4863
 Frc consts  --      1.0516                 0.7618                 0.8224
 IR Inten    --      9.9900                 3.8404                 9.0418

                     28                     29                     30
                      A                      A                      A
 Frequencies --    970.9606               977.5211              1020.6996
 Red. masses --      1.3433                 1.4021                 2.4957
 Frc consts  --      0.7462                 0.7894                 1.5319
 IR Inten    --      0.7976                 1.8173                 4.4299

                     31                     32                     33
                      A                      A                      A
 Frequencies --   1056.7855              1080.7489              1115.6174
 Red. masses --      2.7777                 1.2205                 1.1324
 Frc consts  --      1.8277                 0.8399                 0.8304
 IR Inten    --     31.4675                19.8329                 0.7194

                     34                     35                     36
                      A                      A                      A
 Frequencies --   1126.5571              1135.4337              1262.2555
 Red. masses --      1.1432                 1.2620                 6.9973
 Frc consts  --      0.8548                 0.9586                 6.5686
 IR Inten    --      1.6830                 4.4856               153.3215

                     37                     38                     39
                      A                      A                      A
 Frequencies --   1273.6389              1324.5854              1336.1018
 Red. masses --      1.7214                 1.6173                 1.7706
 Frc consts  --      1.6452                 1.6719                 1.8623
 IR Inten    --      3.1863                 1.5414                 2.0908

                     40                     41                     42
                      A                      A                      A
 Frequencies --   1400.8300              1414.9245              1532.5217
 Red. masses --      1.3135                 1.5588                 5.1985
 Frc consts  --      1.5186                 1.8386                 7.1935
 IR Inten    --     46.4236                 1.1041                51.7820

                     43                     44                     45
                      A                      A                      A
 Frequencies --   1621.9258              1630.8753              1821.0203
 Red. masses --      5.0183                 6.4445                12.7211
 Frc consts  --      7.7780                10.0990                24.8545
 IR Inten    --      3.9419                27.1877               603.1076

                     46                     47                     48
                      A                      A                      A
 Frequencies --   1893.4012              3015.2568              3033.5255
 Red. masses --     12.6324                 1.0612                 1.0972
 Frc consts  --     26.6822                 5.6845                 5.9489
 IR Inten    --    158.5336                 5.4557                 7.6713

                     49                     50                     51
                      A                      A                      A
 Frequencies --   3198.8074              3210.8163              3222.9571
 Red. masses --      1.0868                 1.0893                 1.1000
 Frc consts  --      6.5520                 6.6164                 6.7320
 IR Inten    --      2.4131                 2.6565                 6.6872

                     52                     53                     54
                      A                      A                      A
 Frequencies --   3232.4806              3242.7694              3261.9376
 Red. masses --      1.1045                 1.0895                 1.1078
 Frc consts  --      6.7994                 6.7499                 6.9449
 IR Inten    --      0.9550                 0.5650                 1.8258

 - Thermochemistry -
 -------------------
 Temperature   298.150 Kelvin.  Pressure   1.00000 Atm.
 Atom     1 has atomic number  6 and mass  12.00000

 Molecular mass:   164.04734 amu.
 Principal axes and moments of inertia in atomic units:
                           1         2         3
     Eigenvalues --  1335.432602341.012522884.24965
           X           -0.00748   0.95353   0.30121
           Y            0.92102  -0.11074   0.37345
           Z           -0.38945  -0.28022   0.87739
 This molecule is an asymmetric top.
 Rotational symmetry number  1.
 Warning -- assumption of classical behavior for rotation
           may cause significant error
 Rotational temperatures (Kelvin)      0.06486     0.03700     0.03003
 Rotational constants (GHZ):           1.35143     0.77092     0.62572
 Zero-point vibrational energy     390544.2 (Joules/Mol)
                                   93.34230 (Kcal/Mol)
 Warning -- explicit consideration of  12 degrees of freedom as
           vibrations may cause significant error
 Vibrational temperatures:     26.49    51.52    74.20    87.59   118.68
          (Kelvin)            125.19   251.09   413.54   509.11   582.47
                              759.42   814.14   912.44   932.43   991.34
                             1013.37  1053.83  1121.43  1177.71  1183.05
                             1219.25  1253.72  1301.43  1320.37  1336.68
                             1382.70  1394.26  1397.00  1406.43  1468.56
                             1520.48  1554.96  1605.12  1620.86  1633.64
                             1816.10  1832.48  1905.78  1922.35  2015.48
                             2035.76  2204.96  2333.59  2346.47  2620.04
                             2724.18  4338.28  4364.57  4602.37  4619.65
                             4637.12  4650.82  4665.62  4693.20

 Zero-point correction=                           0.148750 (Hartree/Particle)
 Thermal correction to Energy=                    0.160116
 Thermal correction to Enthalpy=                  0.161060
 Thermal correction to Gibbs Free Energy=         0.107920
 Sum of electronic and zero-point Energies=           -573.486735
 Sum of electronic and thermal Energies=              -573.475369
 Sum of electronic and thermal Enthalpies=            -573.474425
 Sum of electronic and thermal Free Energies=         -573.527565

                     E (Thermal)             CV                S
                      KCal/Mol        Cal/Mol-Kelvin    Cal/Mol-Kelvin
 Total                  100.474             39.892            111.844
 Electronic               0.000              0.000              0.000
 Translational            0.889              2.981             41.193
 Rotational               0.889              2.981             30.579
 Vibrational             98.697             33.931             40.072
 Vibration     1          0.593              1.986              6.798
 Vibration     2          0.594              1.982              5.479
 Vibration     3          0.596              1.977              4.756
 Vibration     4          0.597              1.973              4.428
 Vibration     5          0.600              1.961              3.831
 Vibration     6          0.601              1.958              3.726
 Vibration     7          0.627              1.874              2.386
 Vibration     8          0.685              1.697              1.489
 Vibration     9          0.730              1.567              1.149
 Vibration    10          0.770              1.460              0.945
 Vibration    11          0.883              1.188              0.592
 Vibration    12          0.922              1.105              0.512

                       ! Non-Optimized Parameters !
 Normal termination of Gaussian 16 at Sun Jun 12 04:15:07 2022.
