 Gaussian 16, Revision A.03,
 Gaussian 16:  ES64L-G16RevA.03 25-Dec-2016

 --------------------------
 # sp B3LYP/Def2TZVP NoSymm
 --------------------------

 ----------------------------
 int_initalOpt_zmat_AlignedSp
 ----------------------------
 Symbolic Z-matrix:
 Charge =  0 Multiplicity = 1

                          Input orientation:
 ---------------------------------------------------------------------
 Center     Atomic      Atomic             Coordinates (Angstroms)
 Number     Number       Type             X           Y           Z
 ---------------------------------------------------------------------
      1          6           0        0.000000    0.000000    0.000000
      2          6           0        0.000000    0.000000    1.515672
      3          6           0        1.297329    0.000000    0.760619
      4          1           0       -0.290532    0.918530   -0.492339
      5          1           0       -0.303137   -0.904137   -0.511241
      6          1           0        1.883944    0.908209    0.748606
      7          1           0        1.886745   -0.907076    0.769478
      8          6           0       -0.494338    1.179227    2.266025
      9          1           0       -0.285397   -0.948713    1.959316
     10          6           0        0.214228    2.241132    2.633709
     11          1           0       -1.550962    1.145922    2.522449
     12          1           0        1.273421    2.327697    2.423527
     13          1           0       -0.244992    3.065109    3.164542
 ---------------------------------------------------------------------

 SCF Done:  E(RB3LYP) =  -195.367315238     A.U. after   13 cycles

 Alpha  occ. eigenvalues --  -10.18343 -10.17640 -10.17501 -10.17344 -10.16187
 Alpha  occ. eigenvalues --   -0.86643  -0.76243  -0.63241  -0.60399  -0.54113
 Alpha  occ. eigenvalues --   -0.50618  -0.47318  -0.44430  -0.39079  -0.37052
 Alpha  occ. eigenvalues --   -0.35293  -0.32157  -0.30019  -0.25365
 Alpha virt. eigenvalues --    0.00268   0.04790   0.05826   0.07399   0.07533
 Alpha virt. eigenvalues --    0.10481   0.11526   0.12336   0.12954   0.15722
 Alpha virt. eigenvalues --    0.16347   0.17097   0.18595   0.19913   0.22286

 Mulliken charges:
               1
     1  C   -0.207560
     2  C   -0.018772
     3  C   -0.215701
     4  H    0.108687
     5  H    0.103110
     6  H    0.103626
     7  H    0.104704
     8  C   -0.126069
     9  H    0.094055
    10  C   -0.256188
    11  H    0.098654
    12  H    0.101634
    13  H    0.109821
 Sum of Mulliken charges =  -0.00000

 Dipole moment (field-independent basis, Debye):
    X=             -0.0697    Y=             -0.3742    Z=             -0.2228  Tot=              0.4410
 Quadrupole moment (field-independent basis, Debye-Ang):
   XX=            -31.4741   YY=            -30.9986   ZZ=            -34.4983
   XY=              0.3058   XZ=             -0.6525   YZ=             -0.0123

 Normal termination of Gaussian 16 at Fri Jun 10 02:27:42 2022.
