 Gaussian 16, Revision A.03,
 Gaussian 16:  ES64L-G16RevA.03 25-Dec-2016

 ----------------------------------------------------------------------
 # Opt=(TS, CalcFC, noeigentest, Z-matrix, MaxStep=10) geom=allcheckpoi
 nt guess=read Field=read NoSymm B3LYP/Def2TZVP freq=noraman pop=none
 ----------------------------------------------------------------------

 Structure from the checkpoint file:  "checkpoint.chk"
 -----------------
 ts_zmat_initalOpt
 -----------------
 Charge =  0 Multiplicity = 1

 SCF Done:  E(RB3LYP) =  -269.394168530     A.U. after   10 cycles
 SCF Done:  E(RB3LYP) =  -269.394188085     A.U. after   12 cycles
 Optimization completed.
    -- Stationary point found.
 Normal termination of Gaussian 16 at Fri Jun 10 11:22:12 2022.

 --------------------------------------------------------------------
 #N Geom=AllCheck Guess=TCheck SCRF=Check GenChk RB3LYP/def2TZVP Freq
 --------------------------------------------------------------------

 Structure from the checkpoint file:  "checkpoint.chk"
 -----------------
 ts_zmat_initalOpt
 -----------------
 Charge =  0 Multiplicity = 1

                          Input orientation:
 ---------------------------------------------------------------------
 Center     Atomic      Atomic             Coordinates (Angstroms)
 Number     Number       Type             X           Y           Z
 ---------------------------------------------------------------------
      1          6           0        0.000000    0.000000    0.000000
      2          6           0        0.000000    0.000000    1.385459
      3          6           0        1.205842    0.000000   -0.715889
      4          1           0       -0.922221    0.169450   -0.546574
      5          1           0       -0.809930    0.451631    1.944247
      6          1           0        1.186810    0.028378   -1.796616
      7          6           0        2.370222    0.484172   -0.092298
      8          6           0        1.161690   -0.433946    2.020587
      9          1           0        3.063726    1.032541   -0.741827
     10          8           0        2.650732    0.498997    1.139507
     11          1           0        1.331017   -0.222014    3.068818
     12          1           0        1.647340   -1.325739    1.648973
 ---------------------------------------------------------------------

 SCF Done:  E(RB3LYP) =  -269.394188085     A.U. after    1 cycles

 Isotropic polarizability for W=    0.000000       65.15 Bohr**3.
 End of Minotr F.D. properties file   721 does not exist.

 ******    1 imaginary frequencies (negative Signs) ******

                      1                      2                      3
                      A                      A                      A
 Frequencies --   -520.2025               244.6802               375.0944
 Red. masses --      5.6749                 2.8919                 2.5605
 Frc consts  --      0.9048                 0.1020                 0.2123
 IR Inten    --     43.7347                 4.7690                10.0966

                      4                      5                      6
                      A                      A                      A
 Frequencies --    421.3379               572.1828               589.8652
 Red. masses --      4.3107                 2.7644                 3.6359
 Frc consts  --      0.4509                 0.5332                 0.7454
 IR Inten    --      4.8455                23.7612                 3.3741

                      7                      8                      9
                      A                      A                      A
 Frequencies --    722.5459               790.7459               884.0408
 Red. masses --      1.2507                 1.3791                 2.0695
 Frc consts  --      0.3847                 0.5081                 0.9529
 IR Inten    --     47.2078                26.4703                22.8182

                     10                     11                     12
                      A                      A                      A
 Frequencies --    952.0464               962.0547               980.4107
 Red. masses --      1.6078                 1.4415                 1.4322
 Frc consts  --      0.8586                 0.7861                 0.8111
 IR Inten    --     46.2333                 7.6347                 4.7613

                     13                     14                     15
                      A                      A                      A
 Frequencies --   1018.3528              1043.1577              1100.4327
 Red. masses --      3.5876                 1.7565                 1.3277
 Frc consts  --      2.1920                 1.1262                 0.9473
 IR Inten    --     13.6370                 5.4728                18.9364

                     16                     17                     18
                      A                      A                      A
 Frequencies --   1116.0128              1181.1898              1247.0158
 Red. masses --      1.5693                 1.2214                 1.3615
 Frc consts  --      1.1516                 1.0041                 1.2475
 IR Inten    --      1.6233                13.7141                 2.9908

                     19                     20                     21
                      A                      A                      A
 Frequencies --   1344.6949              1405.4119              1440.0758
 Red. masses --      1.3763                 1.8492                 1.8258
 Frc consts  --      1.4662                 2.1520                 2.2309
 IR Inten    --     44.7695                57.8691                63.4797

                     22                     23                     24
                      A                      A                      A
 Frequencies --   1496.2753              1553.2058              1615.8793
 Red. masses --      1.7279                 2.2391                 5.5200
 Frc consts  --      2.2793                 3.1826                 8.4920
 IR Inten    --      6.4259                22.1734               122.4021

                     25                     26                     27
                      A                      A                      A
 Frequencies --   3021.7869              3140.1838              3152.4040
 Red. masses --      1.0850                 1.0571                 1.0875
 Frc consts  --      5.8371                 6.1414                 6.3674
 IR Inten    --     47.8107                17.1332                 5.4263

                     28                     29                     30
                      A                      A                      A
 Frequencies --   3179.3499              3196.8774              3224.2468
 Red. masses --      1.0925                 1.0916                 1.1176
 Frc consts  --      6.5064                 6.5729                 6.8454
 IR Inten    --      4.4447                 5.8157                 6.2699

 - Thermochemistry -
 -------------------
 Temperature   298.150 Kelvin.  Pressure   1.00000 Atm.
 Atom     1 has atomic number  6 and mass  12.00000

 Molecular mass:    82.04186 amu.
 Principal axes and moments of inertia in atomic units:
                           1         2         3
     Eigenvalues --   325.19973 385.98941 665.29129
           X            0.92925   0.31685  -0.19000
           Y            0.21901  -0.05824   0.97398
           Z           -0.29754   0.94668   0.12351
 This molecule is an asymmetric top.
 Rotational symmetry number  1.
 Rotational temperatures (Kelvin)      0.26634     0.22439     0.13019
 Rotational constants (GHZ):           5.54964     4.67562     2.71271
    1 imaginary frequencies ignored.
 Zero-point vibrational energy     251045.7 (Joules/Mol)
                                   60.00136 (Kcal/Mol)
 Warning -- explicit consideration of   5 degrees of freedom as
           vibrations may cause significant error
 Vibrational temperatures:    352.04   539.68   606.21   823.24   848.68
          (Kelvin)           1039.58  1137.71  1271.94  1369.78  1384.18
                             1410.59  1465.18  1500.87  1583.28  1605.69
                             1699.47  1794.18  1934.72  2022.07  2071.95
                             2152.81  2234.72  2324.89  4347.68  4518.02
                             4535.61  4574.38  4599.59  4638.97

 Zero-point correction=                           0.095618 (Hartree/Particle)
 Thermal correction to Energy=                    0.100460
 Thermal correction to Enthalpy=                  0.101404
 Thermal correction to Gibbs Free Energy=         0.067596
 Sum of electronic and zero-point Energies=           -269.298570
 Sum of electronic and thermal Energies=              -269.293729
 Sum of electronic and thermal Enthalpies=            -269.292784
 Sum of electronic and thermal Free Energies=         -269.326592

                     E (Thermal)             CV                S
                      KCal/Mol        Cal/Mol-Kelvin    Cal/Mol-Kelvin
 Total                   63.039             18.194             71.154
 Electronic               0.000              0.000              0.000
 Translational            0.889              2.981             39.128
 Rotational               0.889              2.981             25.927
 Vibrational             61.262             12.233              6.099
 Vibration     1          0.660              1.772              1.769
 Vibration     2          0.746              1.523              1.059
 Vibration     3          0.784              1.424              0.887
 Vibration     4          0.928              1.091              0.500
 Vibration     5          0.947              1.053              0.467

 Optimization completed.
    -- Stationary point found.
 Normal termination of Gaussian 16 at Fri Jun 10 11:24:48 2022.
