 Gaussian 16, Revision A.03,
 Gaussian 16:  ES64L-G16RevA.03 25-Dec-2016

 --------------------------
 # sp B3LYP/Def2TZVP NoSymm
 --------------------------

 ---------------------------
 ts_initalOpt_zmat_AlignedSp
 ---------------------------
 Symbolic Z-matrix:
 Charge =  0 Multiplicity = 1

                          Input orientation:
 ---------------------------------------------------------------------
 Center     Atomic      Atomic             Coordinates (Angstroms)
 Number     Number       Type             X           Y           Z
 ---------------------------------------------------------------------
      1          7           0        0.000000    0.000000    0.000000
      2          8           0        0.000000    0.000000    1.341475
      3          6           0        1.357427    0.000000   -0.547687
      4          6           0       -0.855058   -1.054271   -0.547686
      5          1           0        1.865429   -0.938799   -0.309801
      6          1           0        1.907487    0.823495   -0.098906
      7          1           0        1.316963    0.129683   -1.630613
      8          1           0       -1.841126   -0.962758   -0.098902
      9          1           0       -0.445916   -2.040179   -0.309800
     10          1           0       -0.930294   -0.941155   -1.630612
     11          6           0       -0.868638    1.822913   -0.372367
     12          6           0       -1.072385    2.250477    0.949982
     13          1           0       -0.054259    2.226640   -0.961842
     14          1           0       -1.695176    1.444723   -0.961854
     15          1           0       -0.535419    1.123612    1.493970
     16          1           0       -2.091012    2.270476    1.324793
     17          1           0       -0.446282    3.054214    1.324800
 ---------------------------------------------------------------------

 SCF Done:  E(RB3LYP) =  -289.018861345     A.U. after   14 cycles

 Alpha  occ. eigenvalues --  -19.11060 -14.40685 -10.20521 -10.20521 -10.19199
 Alpha  occ. eigenvalues --  -10.13593  -1.07028  -0.83992  -0.75767  -0.73464
 Alpha  occ. eigenvalues --   -0.62191  -0.58313  -0.51019  -0.49329  -0.48483
 Alpha  occ. eigenvalues --   -0.45715  -0.42598  -0.41608  -0.40924  -0.39404
 Alpha  occ. eigenvalues --   -0.38939  -0.35030  -0.26296  -0.26106  -0.23935
 Alpha virt. eigenvalues --    0.00094   0.02359   0.06288   0.06431   0.08440
 Alpha virt. eigenvalues --    0.08483   0.09592   0.09759   0.11476   0.11730
 Alpha virt. eigenvalues --    0.13782   0.15454   0.17192   0.17813   0.18043

 Mulliken charges:
               1
     1  N    0.113368
     2  O   -0.454808
     3  C   -0.256997
     4  C   -0.257003
     5  H    0.119508
     6  H    0.136371
     7  H    0.115186
     8  H    0.136372
     9  H    0.119508
    10  H    0.115185
    11  C   -0.157060
    12  C   -0.461374
    13  H    0.108991
    14  H    0.108991
    15  H    0.300376
    16  H    0.106692
    17  H    0.106693
 Sum of Mulliken charges =  -0.00000

 Dipole moment (field-independent basis, Debye):
    X=              0.2974    Y=             -0.6242    Z=             -2.9285  Tot=              3.0090
 Quadrupole moment (field-independent basis, Debye-Ang):
   XX=            -37.5507   YY=            -40.6415   ZZ=            -42.5976
   XY=              1.9055   XZ=             -0.3931   YZ=              0.8250

 1\1\GINC-BHC0021\SP\RB3LYP\def2TZVP\C4H11N1O1\DHANAWAY\10-Jun-2022\0\\
 # sp B3LYP/Def2TZVP NoSymm\\ts_initalOpt_zmat_AlignedSp\\0,1\N\O,1,1.3
 4147491\C,1,1.46375226,2,111.97281764\C,1,1.4637524,2,111.9727586,3,12
 9.04348015,0\H,3,1.09361798,1,110.4496159,2,66.37270831,0\H,3,1.087250
 93,1,108.34421539,5,-119.30850278,0\H,3,1.09141309,1,109.68657402,5,12
 0.87721249,0\H,4,1.08725027,1,108.3441555,2,52.93561818,0\H,4,1.093617
 95,1,110.44957424,8,-119.30842111,0\H,4,1.09141357,1,109.6866664,8,119
 .81425197,0\C,1,2.05333931,2,100.44822575,3,-115.4783116,0\C,11,1.4046

 Normal termination of Gaussian 16 at Fri Jun 10 11:01:40 2022.
