 Gaussian 16, Revision A.03,
 Gaussian 16:  ES64L-G16RevA.03 25-Dec-2016

 ----------------------------------------------------------------------
 # Opt=(Z-matrix, MaxStep=10) B3LYP/Def2TZVP geom=allcheckpoint guess=r
 ead Field=read NoSymm freq=noraman pop=none
 ----------------------------------------------------------------------

 Structure from the checkpoint file:  "checkpoint.chk"
 ------------------
 int_zmat_initalOpt
 ------------------
 Charge =  0 Multiplicity = 1

 SCF Done:  E(RB3LYP) =  -312.120237219     A.U. after   10 cycles
 SCF Done:  E(RB3LYP) =  -312.120248281     A.U. after    8 cycles
 SCF Done:  E(RB3LYP) =  -312.120250247     A.U. after    7 cycles
 Optimization completed.
    -- Stationary point found.
 Normal termination of Gaussian 16 at Fri Jun 10 04:06:20 2022.

 --------------------------------------------------------------------
 #N Geom=AllCheck Guess=TCheck SCRF=Check GenChk RB3LYP/def2TZVP Freq
 --------------------------------------------------------------------

 Structure from the checkpoint file:  "checkpoint.chk"
 ------------------
 int_zmat_initalOpt
 ------------------
 Charge =  0 Multiplicity = 1

                          Input orientation:
 ---------------------------------------------------------------------
 Center     Atomic      Atomic             Coordinates (Angstroms)
 Number     Number       Type             X           Y           Z
 ---------------------------------------------------------------------
      1          6           0        0.000000    0.000000    0.000000
      2          6           0        0.000000    0.000000    1.546907
      3          6           0        1.544133    0.000000    0.030722
      4          1           0       -0.391066    0.939587   -0.389763
      5          1           0       -0.494640   -0.828080   -0.515830
      6          6           0        1.462245    0.518523    1.528615
      7          6           0        2.350562    0.737487   -0.983139
      8          1           0       -0.052790   -1.010417    1.958051
      9          1           0       -0.744467    0.614564    2.048229
     10          1           0        1.906364   -1.034981    0.076341
     11          6           0        1.883098    1.362852   -2.057705
     12          6           0        1.674785    1.992264    1.701807
     13          1           0        3.421747    0.763343   -0.794339
     14          1           0        2.146001   -0.009852    2.198630
     15          6           0        0.797127    2.888965    2.132566
     16          1           0        2.541986    1.899055   -2.728540
     17          1           0        0.823509    1.401941   -2.282422
     18          1           0        2.680986    2.331417    1.470646
     19          1           0       -0.219454    2.633477    2.405461
     20          1           0        1.075245    3.927738    2.251495
 ---------------------------------------------------------------------

 SCF Done:  E(RB3LYP) =  -312.120250247     A.U. after    1 cycles

 Isotropic polarizability for W=    0.000000       92.68 Bohr**3.
 End of Minotr F.D. properties file   721 does not exist.

                      1                      2                      3
                      A                      A                      A
 Frequencies --     61.8840                91.8421               115.1848
 Red. masses --      2.9137                 2.1650                 2.3542
 Frc consts  --      0.0066                 0.0108                 0.0184
 IR Inten    --      0.3200                 0.1170                 0.0681

                      4                      5                      6
                      A                      A                      A
 Frequencies --    205.4633               249.9869               305.4243
 Red. masses --      2.1582                 2.4556                 2.4138
 Frc consts  --      0.0537                 0.0904                 0.1327
 IR Inten    --      0.0284                 0.4874                 0.0952

                      7                      8                      9
                      A                      A                      A
 Frequencies --    398.4394               493.5497               533.4703
 Red. masses --      2.0323                 2.1394                 2.1188
 Frc consts  --      0.1901                 0.3070                 0.3553
 IR Inten    --      3.1469                 3.6865                 0.9497

                     10                     11                     12
                      A                      A                      A
 Frequencies --    602.0838               641.5492               732.5410
 Red. masses --      1.9805                 2.0213                 1.5121
 Frc consts  --      0.4230                 0.4902                 0.4781
 IR Inten    --      3.3698                 5.7690                 2.3448

                     13                     14                     15
                      A                      A                      A
 Frequencies --    770.6695               813.2116               910.6546
 Red. masses --      1.8074                 2.1947                 2.1842
 Frc consts  --      0.6325                 0.8551                 1.0672
 IR Inten    --      3.6505                 3.3517                 5.2072

                     16                     17                     18
                      A                      A                      A
 Frequencies --    933.1990               942.3216               944.5901
 Red. masses --      2.5825                 1.4370                 2.2021
 Frc consts  --      1.3251                 0.7518                 1.1576
 IR Inten    --      1.0405                42.4374                 7.7031

                     19                     20                     21
                      A                      A                      A
 Frequencies --    976.2969               979.0810              1022.8765
 Red. masses --      1.3311                 1.6713                 1.1819
 Frc consts  --      0.7475                 0.9439                 0.7286
 IR Inten    --     42.5758                 0.9503                 2.2277

                     22                     23                     24
                      A                      A                      A
 Frequencies --   1032.3692              1037.4168              1058.9137
 Red. masses --      1.1474                 1.1688                 1.8674
 Frc consts  --      0.7205                 0.7411                 1.2337
 IR Inten    --      7.3702                 6.8850                 3.7228

                     25                     26                     27
                      A                      A                      A
 Frequencies --   1083.7125              1119.3720              1158.8959
 Red. masses --      1.7961                 1.5469                 1.7994
 Frc consts  --      1.2428                 1.1420                 1.4238
 IR Inten    --      7.1493                 5.0740                 0.5789

                     28                     29                     30
                      A                      A                      A
 Frequencies --   1203.3770              1219.9997              1256.5443
 Red. masses --      1.3452                 1.2816                 1.3581
 Frc consts  --      1.1478                 1.1239                 1.2634
 IR Inten    --      3.4476                 1.5335                 0.7328

                     31                     32                     33
                      A                      A                      A
 Frequencies --   1265.2687              1270.2226              1332.9299
 Red. masses --      1.3484                 1.4460                 1.3017
 Frc consts  --      1.2719                 1.3746                 1.3627
 IR Inten    --      2.8905                 0.0157                 0.2645

                     34                     35                     36
                      A                      A                      A
 Frequencies --   1341.9783              1357.6832              1377.4817
 Red. masses --      1.2975                 1.4094                 1.6669
 Frc consts  --      1.3767                 1.5306                 1.8635
 IR Inten    --      0.2714                 3.1230                 4.9928

                     37                     38                     39
                      A                      A                      A
 Frequencies --   1456.9915              1458.5489              1483.8120
 Red. masses --      1.2100                 1.1914                 1.0974
 Frc consts  --      1.5134                 1.4933                 1.4236
 IR Inten    --      2.9055                 7.1054                 1.9452

                     40                     41                     42
                      A                      A                      A
 Frequencies --   1504.5297              1700.5518              1707.1122
 Red. masses --      1.1287                 4.5432                 4.4690
 Frc consts  --      1.5053                 7.7410                 7.6734
 IR Inten    --      4.9534                19.3390                 6.7409

                     43                     44                     45
                      A                      A                      A
 Frequencies --   2978.3545              3021.1727              3028.1587
 Red. masses --      1.0824                 1.0674                 1.0826
 Frc consts  --      5.6570                 5.7403                 5.8491
 IR Inten    --     39.9510                89.0613                30.2619

                     46                     47                     48
                      A                      A                      A
 Frequencies --   3049.1224              3094.8820              3117.3422
 Red. masses --      1.0701                 1.0952                 1.0984
 Frc consts  --      5.8617                 6.1808                 6.2887
 IR Inten    --     73.8950                21.5406                28.6226

                     49                     50                     51
                      A                      A                      A
 Frequencies --   3119.0801              3135.0121              3137.7272
 Red. masses --      1.0847                 1.0843                 1.0637
 Frc consts  --      6.2175                 6.2789                 6.1702
 IR Inten    --      8.0772                10.6009                 5.7795

                     52                     53                     54
                      A                      A                      A
 Frequencies --   3149.2726              3216.6815              3229.2173
 Red. masses --      1.0644                 1.1150                 1.1150
 Frc consts  --      6.2201                 6.7976                 6.8502
 IR Inten    --      5.8824                12.3282                 4.6536

 - Thermochemistry -
 -------------------
 Temperature   298.150 Kelvin.  Pressure   1.00000 Atm.
 Atom     1 has atomic number  6 and mass  12.00000

 Molecular mass:   108.09390 amu.
 Principal axes and moments of inertia in atomic units:
                           1         2         3
     Eigenvalues --   643.321291067.543701371.90225
           X           -0.28667   0.50978   0.81114
           Y            0.24512   0.85752  -0.45230
           Z            0.92614  -0.06917   0.37078
 This molecule is an asymmetric top.
 Rotational symmetry number  1.
 Warning -- assumption of classical behavior for rotation
           may cause significant error
 Rotational temperatures (Kelvin)      0.13464     0.08113     0.06313
 Rotational constants (GHZ):           2.80535     1.69055     1.31550
 Zero-point vibrational energy     463122.6 (Joules/Mol)
                                  110.68896 (Kcal/Mol)
 Warning -- explicit consideration of  10 degrees of freedom as
           vibrations may cause significant error
 Vibrational temperatures:     89.04   132.14   165.73   295.62   359.68
          (Kelvin)            439.44   573.27   710.11   767.54   866.26
                              923.05  1053.96  1108.82  1170.03  1310.23
                             1342.67  1355.79  1359.05  1404.67  1408.68
                             1471.69  1485.35  1492.61  1523.54  1559.22
                             1610.53  1667.39  1731.39  1755.31  1807.89
                             1820.44  1827.57  1917.79  1930.81  1953.40
                             1981.89  2096.29  2098.53  2134.87  2164.68
                             2446.71  2456.15  4285.19  4346.79  4356.84
                             4387.01  4452.84  4485.16  4487.66  4510.58
                             4514.49  4531.10  4628.09  4646.12

 Zero-point correction=                           0.176394 (Hartree/Particle)
 Thermal correction to Energy=                    0.184846
 Thermal correction to Enthalpy=                  0.185791
 Thermal correction to Gibbs Free Energy=         0.143054
 Sum of electronic and zero-point Energies=           -311.943856
 Sum of electronic and thermal Energies=              -311.935404
 Sum of electronic and thermal Enthalpies=            -311.934460
 Sum of electronic and thermal Free Energies=         -311.977197

                     E (Thermal)             CV                S
                      KCal/Mol        Cal/Mol-Kelvin    Cal/Mol-Kelvin
 Total                  115.993             31.637             89.948
 Electronic               0.000              0.000              0.000
 Translational            0.889              2.981             39.950
 Rotational               0.889              2.981             28.334
 Vibrational            114.215             25.675             21.663
 Vibration     1          0.597              1.973              4.396
 Vibration     2          0.602              1.955              3.620
 Vibration     3          0.608              1.937              3.180
 Vibration     4          0.640              1.832              2.084
 Vibration     5          0.663              1.763              1.731
 Vibration     6          0.696              1.663              1.387
 Vibration     7          0.765              1.473              0.968
 Vibration     8          0.849              1.264              0.674
 Vibration     9          0.888              1.176              0.580
 Vibration    10          0.960              1.027              0.446

                       ! Non-Optimized Parameters !
 Normal termination of Gaussian 16 at Fri Jun 10 04:15:32 2022.
