 Gaussian 16, Revision A.03,
 Gaussian 16:  ES64L-G16RevA.03 25-Dec-2016

 ----------------------------------------------------------------------
 # Opt=(Z-matrix, MaxStep=10) B3LYP/Def2TZVP geom=allcheckpoint guess=r
 ead Field=read NoSymm freq=noraman pop=none
 ----------------------------------------------------------------------

 Structure from the checkpoint file:  "checkpoint.chk"
 ------------------
 int_zmat_initalOpt
 ------------------
 Charge =  0 Multiplicity = 1

 SCF Done:  E(RB3LYP) =  -309.744561651     A.U. after    9 cycles
 SCF Done:  E(RB3LYP) =  -309.743947347     A.U. after   11 cycles
 SCF Done:  E(RB3LYP) =  -309.744222705     A.U. after   11 cycles
 SCF Done:  E(RB3LYP) =  -309.722243879     A.U. after   13 cycles
 SCF Done:  E(RB3LYP) =  -309.695686993     A.U. after   15 cycles
 SCF Done:  E(RB3LYP) =  -309.744561698     A.U. after    9 cycles
 SCF Done:  E(RB3LYP) =  -309.744286443     A.U. after   10 cycles
 SCF Done:  E(RB3LYP) =  -309.744564602     A.U. after    9 cycles
 Optimization completed.
    -- Stationary point found.
 Normal termination of Gaussian 16 at Fri Jun 10 23:41:07 2022.

 --------------------------------------------------------------------
 #N Geom=AllCheck Guess=TCheck SCRF=Check GenChk RB3LYP/def2TZVP Freq
 --------------------------------------------------------------------

 Structure from the checkpoint file:  "checkpoint.chk"
 ------------------
 int_zmat_initalOpt
 ------------------
 Charge =  0 Multiplicity = 1

                          Input orientation:
 ---------------------------------------------------------------------
 Center     Atomic      Atomic             Coordinates (Angstroms)
 Number     Number       Type             X           Y           Z
 ---------------------------------------------------------------------
      1          1           0        0.000000    0.000000    0.000000
      2          6           0        0.000000    0.000000    1.082445
      3          6           0        1.216528    0.000000    1.772056
      4          6           0       -1.225275    0.000306    1.754164
      5          1           0        2.156438   -0.000200    1.233622
      6          6           0        1.129622    0.000356    3.152080
      7          6           0       -1.298316    0.000627    3.150579
      8          1           0       -2.138321    0.000306    1.172752
      9          6           0        1.942530    0.000643    4.436684
     10          6           0       -0.088188    0.000825    3.819663
     11          1           0       -2.257864    0.000945    3.653176
     12          1           0        2.555736   -0.887446    4.611239
     13          6           0        0.557275    0.000962    5.195928
     14          1           0        2.555915    0.888705    4.610752
     15          1           0        0.374152    0.889165    5.806462
     16          1           0        0.373841   -0.886974    5.806752
 ---------------------------------------------------------------------

 SCF Done:  E(RB3LYP) =  -309.744564602     A.U. after    1 cycles

 Isotropic polarizability for W=    0.000000       88.27 Bohr**3.
 End of Minotr F.D. properties file   721 does not exist.

                      1                      2                      3
                      A                      A                      A
 Frequencies --    192.6895               212.3996               401.6675
 Red. masses --      1.8872                 3.1953                 2.7665
 Frc consts  --      0.0413                 0.0849                 0.2630
 IR Inten    --      0.0005                 7.8348                 5.5183

                      4                      5                      6
                      A                      A                      A
 Frequencies --    415.5410               488.2313               551.3508
 Red. masses --      3.3891                 2.8960                 5.7688
 Frc consts  --      0.3448                 0.4067                 1.0332
 IR Inten    --      2.1303                 0.0000                 0.0000

                      7                      8                      9
                      A                      A                      A
 Frequencies --    645.3280               716.9916               738.7103
 Red. masses --      6.3102                 3.4272                 1.1378
 Frc consts  --      1.5483                 1.0381                 0.3658
 IR Inten    --      0.0070                 0.0000                37.4351

                     10                     11                     12
                      A                      A                      A
 Frequencies --    791.4413               803.9717               865.0055
 Red. masses --      3.8133                 1.1823                 4.4229
 Frc consts  --      1.4073                 0.4502                 1.9498
 IR Inten    --      1.3589                23.9251                 0.6324

                     13                     14                     15
                      A                      A                      A
 Frequencies --    887.1294               903.0023               951.7127
 Red. masses --      1.2563                 3.4349                 1.3548
 Frc consts  --      0.5825                 1.6502                 0.7230
 IR Inten    --      0.0000                 1.1304                 0.0410

                     16                     17                     18
                      A                      A                      A
 Frequencies --   1007.0908              1024.6864              1047.0032
 Red. masses --      1.3011                 2.1655                 2.0034
 Frc consts  --      0.7775                 1.3396                 1.2940
 IR Inten    --      0.0000                 1.6450                 0.0000

                     19                     20                     21
                      A                      A                      A
 Frequencies --   1087.9496              1104.4658              1154.1540
 Red. masses --      1.1766                 3.1642                 1.6788
 Frc consts  --      0.8205                 2.2741                 1.3176
 IR Inten    --      0.5360                 0.2451                 1.6756

                     22                     23                     24
                      A                      A                      A
 Frequencies --   1181.0151              1183.5161              1199.6402
 Red. masses --      1.1426                 1.2220                 1.5773
 Frc consts  --      0.9390                 1.0085                 1.3374
 IR Inten    --      0.0000                 0.1564                 1.1580

                     25                     26                     27
                      A                      A                      A
 Frequencies --   1222.9130              1228.6594              1311.5217
 Red. masses --      2.6090                 1.4841                 1.5574
 Frc consts  --      2.2989                 1.3200                 1.5783
 IR Inten    --      2.1935                 6.0844                 1.8083

                     28                     29                     30
                      A                      A                      A
 Frequencies --   1364.4462              1466.8411              1480.4616
 Red. masses --      4.2539                 1.0856                 1.3353
 Frc consts  --      4.6660                 1.3762                 1.7243
 IR Inten    --      2.2948                 0.1120                 1.2115

                     31                     32                     33
                      A                      A                      A
 Frequencies --   1498.5405              1500.5418              1634.3515
 Red. masses --      2.2374                 1.9107                 6.5657
 Frc consts  --      2.9602                 2.5347                10.3329
 IR Inten    --      4.0567                16.5586                 0.1996

                     34                     35                     36
                      A                      A                      A
 Frequencies --   1645.9568              3020.2915              3026.6186
 Red. masses --      6.6191                 1.0550                 1.0574
 Frc consts  --     10.5654                 5.6702                 5.7070
 IR Inten    --      0.0528                62.2339               133.1886

                     37                     38                     39
                      A                      A                      A
 Frequencies --   3051.0715              3068.1501              3171.1173
 Red. masses --      1.1083                 1.1069                 1.0880
 Frc consts  --      6.0785                 6.1393                 6.4462
 IR Inten    --      0.0004                69.6734                13.0924

                     40                     41                     42
                      A                      A                      A
 Frequencies --   3174.3435              3187.2642              3199.0778
 Red. masses --      1.0894                 1.0922                 1.0961
 Frc consts  --      6.4677                 6.5371                 6.6091
 IR Inten    --      0.0469                10.9432                 2.6977

 - Thermochemistry -
 -------------------
 Temperature   298.150 Kelvin.  Pressure   1.00000 Atm.
 Atom     1 has atomic number  1 and mass   1.00783

 Molecular mass:   104.06260 amu.
 Principal axes and moments of inertia in atomic units:
                           1         2         3
     Eigenvalues --   402.78908 862.937881243.01943
           X            0.48066   0.87691   0.00012
           Y            0.00017  -0.00023   1.00000
           Z            0.87691  -0.48066  -0.00026
 This molecule is an asymmetric top.
 Rotational symmetry number  1.
 Rotational temperatures (Kelvin)      0.21504     0.10037     0.06968
 Rotational constants (GHZ):           4.48061     2.09139     1.45190
 Zero-point vibrational energy     351743.1 (Joules/Mol)
                                   84.06863 (Kcal/Mol)
 Warning -- explicit consideration of   6 degrees of freedom as
           vibrations may cause significant error
 Vibrational temperatures:    277.24   305.60   577.91   597.87   702.46
          (Kelvin)            793.27   928.48  1031.59  1062.84  1138.71
                             1156.74  1244.55  1276.38  1299.22  1369.30
                             1448.98  1474.30  1506.40  1565.32  1589.08
                             1660.57  1699.22  1702.82  1726.01  1759.50
                             1767.77  1886.99  1963.13  2110.46  2130.05
                             2156.07  2158.95  2351.47  2368.16  4345.53
                             4354.63  4389.81  4414.38  4562.53  4567.17
                             4585.76  4602.76

 Zero-point correction=                           0.133972 (Hartree/Particle)
 Thermal correction to Energy=                    0.139957
 Thermal correction to Enthalpy=                  0.140901
 Thermal correction to Gibbs Free Energy=         0.104143
 Sum of electronic and zero-point Energies=           -309.610593
 Sum of electronic and thermal Energies=              -309.604608
 Sum of electronic and thermal Enthalpies=            -309.603664
 Sum of electronic and thermal Free Energies=         -309.640422

                     E (Thermal)             CV                S
                      KCal/Mol        Cal/Mol-Kelvin    Cal/Mol-Kelvin
 Total                   87.824             24.283             77.364
 Electronic               0.000              0.000              0.000
 Translational            0.889              2.981             39.837
 Rotational               0.889              2.981             27.560
 Vibrational             86.047             18.322              9.968
 Vibration     1          0.635              1.850              2.202
 Vibration     2          0.643              1.822              2.023
 Vibration     3          0.767              1.467              0.957
 Vibration     4          0.779              1.436              0.907
 Vibration     5          0.844              1.276              0.688
 Vibration     6          0.907              1.137              0.541

 Optimization completed.
    -- Stationary point found.
 Normal termination of Gaussian 16 at Fri Jun 10 23:47:40 2022.
