 Gaussian 16, Revision A.03,
 Gaussian 16:  ES64L-G16RevA.03 25-Dec-2016

 ----------------------------------------------------------------------
 # Opt=(Z-matrix, MaxStep=10) B3LYP/Def2TZVP geom=allcheckpoint guess=r
 ead Field=read NoSymm freq=noraman pop=none
 ----------------------------------------------------------------------

 Structure from the checkpoint file:  "checkpoint.chk"
 ------------------
 int_zmat_initalOpt
 ------------------
 Charge =  0 Multiplicity = 1

 SCF Done:  E(RB3LYP) =  -387.397345197     A.U. after   10 cycles
 SCF Done:  E(RB3LYP) =  -387.397368470     A.U. after    9 cycles
 SCF Done:  E(RB3LYP) =  -387.397390907     A.U. after   10 cycles
 SCF Done:  E(RB3LYP) =  -387.397402455     A.U. after    8 cycles
 SCF Done:  E(RB3LYP) =  -387.397411670     A.U. after   10 cycles
 SCF Done:  E(RB3LYP) =  -387.397414137     A.U. after    7 cycles
 SCF Done:  E(RB3LYP) =  -387.397415252     A.U. after    8 cycles
 SCF Done:  E(RB3LYP) =  -387.397416295     A.U. after    8 cycles
 Optimization completed.
    -- Stationary point found.

 1\1\GINC-BHC0009\FOpt\RB3LYP\def2TZVP\C8H12O1\DHANAWAY\10-Jun-2022\1\\
 # Opt=(Z-matrix, MaxStep=10) B3LYP/Def2TZVP geom=allcheckpoint guess=r
 ead Field=read NoSymm freq=noraman pop=none\\int_zmat_initalOpt\\0,1\C
 \C,1,R2\C,1,R3,2,A3\C,1,R4,2,A4,3,D4,0\H,2,R5,1,A5,3,D5,0\C,2,R6,1,A6,
 5,D6,0\O,3,R7,1,A7,2,D7,0\H,3,R8,1,A8,7,D8,0\H,3,R9,1,A9,7,D9,0\C,4,R1
 0,1,A10,2,D10,0\C,4,R11,1,A11,10,D11,0\H,4,R12,1,A12,10,D12,0\H,6,R13,
 2,A13,1,D13,0\H,6,R14,2,A14,13,D14,0\H,6,R15,2,A15,13,D15,0\H,10,R16,4
 ,A16,1,D16,0\H,10,R17,4,A17,16,D17,0\C,11,R18,4,A18,1,D18,0\H,11,R19,4

 Normal termination of Gaussian 16 at Fri Jun 10 13:12:25 2022.

 --------------------------------------------------------------------
 #N Geom=AllCheck Guess=TCheck SCRF=Check GenChk RB3LYP/def2TZVP Freq
 --------------------------------------------------------------------

 Structure from the checkpoint file:  "checkpoint.chk"
 ------------------
 int_zmat_initalOpt
 ------------------
 Charge =  0 Multiplicity = 1

                          Input orientation:
 ---------------------------------------------------------------------
 Center     Atomic      Atomic             Coordinates (Angstroms)
 Number     Number       Type             X           Y           Z
 ---------------------------------------------------------------------
      1          6           0        0.000000    0.000000    0.000000
      2          6           0        0.000000    0.000000    1.328285
      3          6           0        1.212782    0.000000   -0.902393
      4          6           0       -1.204019    0.065629   -0.928640
      5          1           0       -0.953276    0.025908    1.846034
      6          6           0        1.205533   -0.078147    2.212985
      7          8           0        0.747000    0.350210   -2.215495
      8          1           0        1.692616   -0.981488   -0.969258
      9          1           0        1.966672    0.724026   -0.571022
     10          6           0       -0.601123    0.811422   -2.118924
     11          6           0       -2.471279    0.606389   -0.342230
     12          1           0       -1.409894   -0.962491   -1.262213
     13          1           0        2.141927   -0.008414    1.657788
     14          1           0        1.216249   -1.022457    2.764794
     15          1           0        1.189231    0.715863    2.964589
     16          1           0       -1.095557    0.595303   -3.067130
     17          1           0       -0.622109    1.896512   -1.945153
     18          6           0       -3.185101    1.627021   -0.802093
     19          1           0       -2.840340    0.069572    0.526126
     20          1           0       -2.892813    2.196867   -1.676606
     21          1           0       -4.105765    1.924401   -0.317008
 ---------------------------------------------------------------------

 SCF Done:  E(RB3LYP) =  -387.397416295     A.U. after    1 cycles

 Isotropic polarizability for W=    0.000000       97.51 Bohr**3.
 End of Minotr F.D. properties file   721 does not exist.

                      1                      2                      3
                      A                      A                      A
 Frequencies --     58.2461                77.5000               135.0373
 Red. masses --      2.4216                 2.5199                 1.0416
 Frc consts  --      0.0048                 0.0089                 0.0112
 IR Inten    --      0.8028                 0.4161                 0.5188

                      4                      5                      6
                      A                      A                      A
 Frequencies --    169.4273               184.7553               188.8068
 Red. masses --      2.7366                 2.7418                 2.4273
 Frc consts  --      0.0463                 0.0551                 0.0510
 IR Inten    --      6.0914                 0.2537                 1.2473

                      7                      8                      9
                      A                      A                      A
 Frequencies --    243.7503               318.0461               428.9378
 Red. masses --      2.9988                 2.5688                 2.8434
 Frc consts  --      0.1050                 0.1531                 0.3082
 IR Inten    --      0.6858                 0.1477                 0.7914

                     10                     11                     12
                      A                      A                      A
 Frequencies --    484.0112               542.0413               574.1887
 Red. masses --      2.4765                 2.3696                 2.9389
 Frc consts  --      0.3418                 0.4102                 0.5709
 IR Inten    --      4.1547                 2.7802                 2.7944

                     13                     14                     15
                      A                      A                      A
 Frequencies --    646.6775               700.1028               803.5359
 Red. masses --      5.1618                 1.9511                 2.4147
 Frc consts  --      1.2718                 0.5634                 0.9186
 IR Inten    --      1.7451                10.5913                 5.3090

                     16                     17                     18
                      A                      A                      A
 Frequencies --    860.4054               931.6991               941.6237
 Red. masses --      1.2460                 4.1007                 1.3408
 Frc consts  --      0.5435                 2.0973                 0.7004
 IR Inten    --      7.2026                39.5364                42.9662

                     19                     20                     21
                      A                      A                      A
 Frequencies --    956.6930               993.3826              1010.4358
 Red. masses --      3.4669                 1.6395                 1.7610
 Frc consts  --      1.8696                 0.9532                 1.0593
 IR Inten    --      7.6569                16.9817                 5.6236

                     22                     23                     24
                      A                      A                      A
 Frequencies --   1016.7099              1036.8431              1054.6477
 Red. masses --      1.4434                 1.4670                 1.3707
 Frc consts  --      0.8791                 0.9292                 0.8983
 IR Inten    --     10.6547                 1.0661                 7.6030

                     25                     26                     27
                      A                      A                      A
 Frequencies --   1065.7039              1079.9869              1106.4538
 Red. masses --      1.5723                 6.2106                 2.6565
 Frc consts  --      1.0521                 4.2679                 1.9161
 IR Inten    --      1.3557                73.5249                23.8037

                     28                     29                     30
                      A                      A                      A
 Frequencies --   1165.9913              1193.1393              1222.4631
 Red. masses --      2.0131                 1.8886                 1.3008
 Frc consts  --      1.6125                 1.5841                 1.1453
 IR Inten    --      5.3196                 5.5039                 2.3830

                     31                     32                     33
                      A                      A                      A
 Frequencies --   1231.7245              1286.5486              1319.2095
 Red. masses --      1.2098                 1.3122                 1.3809
 Frc consts  --      1.0814                 1.2797                 1.4159
 IR Inten    --      0.6639                 4.4023                 0.1967

                     34                     35                     36
                      A                      A                      A
 Frequencies --   1337.3781              1352.8816              1387.5321
 Red. masses --      1.2396                 1.2438                 1.4151
 Frc consts  --      1.3062                 1.3412                 1.6052
 IR Inten    --      2.3222                 0.9224                 5.1510

                     37                     38                     39
                      A                      A                      A
 Frequencies --   1401.1490              1418.6781              1463.2359
 Red. masses --      1.5430                 1.2854                 1.2071
 Frc consts  --      1.7848                 1.5243                 1.5227
 IR Inten    --      3.0042                 1.3802                 1.8128

                     40                     41                     42
                      A                      A                      A
 Frequencies --   1482.2048              1492.2674              1508.4190
 Red. masses --      1.0445                 1.0628                 1.0829
 Frc consts  --      1.3521                 1.3945                 1.4518
 IR Inten    --      5.5948                13.0023                 0.2827

                     43                     44                     45
                      A                      A                      A
 Frequencies --   1521.8281              1704.7638              1751.5507
 Red. masses --      1.0923                 4.5746                 7.6334
 Frc consts  --      1.4904                 7.8330                13.7978
 IR Inten    --      0.9295                19.7839                 1.4719

                     46                     47                     48
                      A                      A                      A
 Frequencies --   2958.1202              2972.5716              2990.4057
 Red. masses --      1.0753                 1.0751                 1.0657
 Frc consts  --      5.5439                 5.5973                 5.6148
 IR Inten    --     24.1951                56.0667                62.2519

                     49                     50                     51
                      A                      A                      A
 Frequencies --   3024.2853              3028.6013              3067.3698
 Red. masses --      1.0365                 1.0975                 1.0993
 Frc consts  --      5.5855                 5.9314                 6.0939
 IR Inten    --     24.4265                28.1438                 9.9975

                     52                     53                     54
                      A                      A                      A
 Frequencies --   3075.7690              3096.1892              3135.8628
 Red. masses --      1.0926                 1.1000                 1.0588
 Frc consts  --      6.0900                 6.2129                 6.1348
 IR Inten    --     46.5107                20.9032                14.0531

                     55                     56                     57
                      A                      A                      A
 Frequencies --   3147.6369              3155.2270              3216.4680
 Red. masses --      1.0906                 1.0886                 1.1143
 Frc consts  --      6.3661                 6.3854                 6.7924
 IR Inten    --      0.5643                10.0718                11.7373

 - Thermochemistry -
 -------------------
 Temperature   298.150 Kelvin.  Pressure   1.00000 Atm.
 Atom     1 has atomic number  6 and mass  12.00000

 Molecular mass:   124.08882 amu.
 Principal axes and moments of inertia in atomic units:
                           1         2         3
     Eigenvalues --   847.309881342.124892055.15806
           X            0.77955  -0.57073   0.25800
           Y           -0.27329   0.06069   0.96002
           Z            0.56357   0.81889   0.10866
 This molecule is an asymmetric top.
 Rotational symmetry number  1.
 Warning -- assumption of classical behavior for rotation
           may cause significant error
 Rotational temperatures (Kelvin)      0.10222     0.06453     0.04214
 Rotational constants (GHZ):           2.12997     1.34469     0.87815
 Zero-point vibrational energy     476826.2 (Joules/Mol)
                                  113.96420 (Kcal/Mol)
 Warning -- explicit consideration of  12 degrees of freedom as
           vibrations may cause significant error
 Vibrational temperatures:     83.80   111.51   194.29   243.77   265.82
          (Kelvin)            271.65   350.70   457.60   617.15   696.38
                              779.88   826.13   930.42  1007.29  1156.11
                             1237.93  1340.51  1354.79  1376.47  1429.26
                             1453.79  1462.82  1491.79  1517.40  1533.31
                             1553.86  1591.94  1677.60  1716.66  1758.85
                             1772.18  1851.06  1898.05  1924.19  1946.49
                             1996.35  2015.94  2041.16  2105.27  2132.56
                             2147.04  2170.28  2189.57  2452.77  2520.09
                             4256.08  4276.87  4302.53  4351.27  4357.48
                             4413.26  4425.35  4454.73  4511.81  4528.75
                             4539.67  4627.78

 Zero-point correction=                           0.181614 (Hartree/Particle)
 Thermal correction to Energy=                    0.191201
 Thermal correction to Enthalpy=                  0.192145
 Thermal correction to Gibbs Free Energy=         0.146517
 Sum of electronic and zero-point Energies=           -387.215803
 Sum of electronic and thermal Energies=              -387.206215
 Sum of electronic and thermal Enthalpies=            -387.205271
 Sum of electronic and thermal Free Energies=         -387.250899

                     E (Thermal)             CV                S
                      KCal/Mol        Cal/Mol-Kelvin    Cal/Mol-Kelvin
 Total                  119.981             34.840             96.033
 Electronic               0.000              0.000              0.000
 Translational            0.889              2.981             40.361
 Rotational               0.889              2.981             29.237
 Vibrational            118.203             28.879             26.435
 Vibration     1          0.596              1.974              4.516
 Vibration     2          0.599              1.964              3.953
 Vibration     3          0.613              1.918              2.873
 Vibration     4          0.625              1.880              2.442
 Vibration     5          0.631              1.861              2.280
 Vibration     6          0.633              1.855              2.240
 Vibration     7          0.659              1.773              1.775
 Vibration     8          0.704              1.639              1.320
 Vibration     9          0.790              1.407              0.862
 Vibration    10          0.840              1.286              0.699
 Vibration    11          0.897              1.157              0.561
 Vibration    12          0.930              1.087              0.496

                       ! Non-Optimized Parameters !

 1\1\GINC-BHC0009\Freq\RB3LYP\def2TZVP\C8H12O1\DHANAWAY\10-Jun-2022\1\\
 #N Geom=AllCheck Guess=TCheck SCRF=Check GenChk RB3LYP/def2TZVP Freq\\
 int_zmat_initalOpt\\0,1\C\C,1,R2\C,1,R3,2,A3\C,1,R4,2,A4,3,D4,0\H,2,R5
 ,1,A5,3,D5,0\C,2,R6,1,A6,5,D6,0\O,3,R7,1,A7,2,D7,0\H,3,R8,1,A8,7,D8,0\
 H,3,R9,1,A9,7,D9,0\C,4,R10,1,A10,2,D10,0\C,4,R11,1,A11,10,D11,0\H,4,R1
 2,1,A12,10,D12,0\H,6,R13,2,A13,1,D13,0\H,6,R14,2,A14,13,D14,0\H,6,R15,
 2,A15,13,D15,0\H,10,R16,4,A16,1,D16,0\H,10,R17,4,A17,16,D17,0\C,11,R18
 ,4,A18,1,D18,0\H,11,R19,4,A19,18,D19,0\H,18,R20,11,A20,4,D20,0\H,18,R2

 Normal termination of Gaussian 16 at Fri Jun 10 13:25:19 2022.
