 Gaussian 16, Revision A.03,
 Gaussian 16:  ES64L-G16RevA.03 25-Dec-2016

 --------------------
 # Opt B3LYP/Def2TZVP
 --------------------

 -------------
 int_initalOpt
 -------------
 Symbolic Z-matrix:
 Charge =  0 Multiplicity = 1

 SCF Done:  E(RB3LYP) =  -269.422511161     A.U. after   13 cycles

 The electronic state is 1-A.
 Alpha  occ. eigenvalues --  -19.16116 -10.23274 -10.23078 -10.17926 -10.17313
 Alpha  occ. eigenvalues --  -10.16645  -1.07060  -0.81408  -0.77439  -0.66565
 Alpha  occ. eigenvalues --   -0.62635  -0.53389  -0.51176  -0.48548  -0.46309
 Alpha  occ. eigenvalues --   -0.43838  -0.40954  -0.37855  -0.36089  -0.33068
 Alpha  occ. eigenvalues --   -0.30118  -0.21129
 Alpha virt. eigenvalues --   -0.03376   0.04616   0.05587   0.07510   0.07893
 Alpha virt. eigenvalues --    0.09293   0.10034   0.10888   0.12582   0.16187
 Alpha virt. eigenvalues --    0.17805   0.19367   0.21561   0.22452   0.22633

 Mulliken charges:
               1
     1  H    0.112304
     2  C   -0.177933
     3  C   -0.088560
     4  H    0.112033
     5  C   -0.168015
     6  H    0.112380
     7  C    0.026122
     8  H    0.121114
     9  O   -0.270103
    10  C    0.036003
    11  H    0.108343
    12  H    0.076311
 Sum of Mulliken charges =  -0.00000

 Dipole moment (field-independent basis, Debye):
    X=              0.2387    Y=              0.5940    Z=              0.3278  Tot=              0.7192
 Quadrupole moment (field-independent basis, Debye-Ang):
   XX=            -30.9075   YY=            -35.6135   ZZ=            -38.5056
   XY=              0.2814   XZ=             -0.0630   YZ=             -0.9470

 Optimization completed.
    -- Stationary point found.

                         Standard orientation:
 ---------------------------------------------------------------------
 Center     Atomic      Atomic             Coordinates (Angstroms)
 Number     Number       Type             X           Y           Z
 ---------------------------------------------------------------------
      1          1           0        1.963283    1.472073   -0.306293
      2          6           0        1.078208    0.888465   -0.089212
      3          6           0       -0.148219    1.419024   -0.059668
      4          1           0       -0.310509    2.472820   -0.249872
      5          6           0       -1.294046    0.547971    0.143988
      6          1           0       -2.286850    0.943778    0.297709
      7          6           0       -1.118722   -0.772584   -0.015022
      8          1           0       -1.922679   -1.496064   -0.057151
      9          8           0        0.089685   -1.337039   -0.244302
     10          6           0        1.222488   -0.572650    0.223468
     11          1           0        2.090154   -1.018524   -0.260039
     12          1           0        1.310866   -0.739130    1.308732
 ---------------------------------------------------------------------

 Normal termination of Gaussian 16 at Mon Mar 21 07:38:02 2022.
