 Gaussian 16, Revision A.03,
 Gaussian 16:  ES64L-G16RevA.03 25-Dec-2016

 ----------------------------------------------------------------------
 # Opt=(Z-matrix, MaxStep=10) B3LYP/Def2TZVP geom=allcheckpoint guess=r
 ead Field=read NoSymm freq=noraman pop=none
 ----------------------------------------------------------------------

 Structure from the checkpoint file:  "checkpoint.chk"
 ------------------
 int_zmat_initalOpt
 ------------------
 Charge =  0 Multiplicity = 1

 SCF Done:  E(RB3LYP) =  -312.117297256     A.U. after   10 cycles
 SCF Done:  E(RB3LYP) =  -312.117304749     A.U. after    8 cycles
 SCF Done:  E(RB3LYP) =  -312.117304791     A.U. after    8 cycles
 SCF Done:  E(RB3LYP) =  -312.117305532     A.U. after    8 cycles
 Optimization completed.
    -- Stationary point found.
 Normal termination of Gaussian 16 at Fri Jun 10 23:17:31 2022.

 --------------------------------------------------------------------
 #N Geom=AllCheck Guess=TCheck SCRF=Check GenChk RB3LYP/def2TZVP Freq
 --------------------------------------------------------------------

 Structure from the checkpoint file:  "checkpoint.chk"
 ------------------
 int_zmat_initalOpt
 ------------------
 Charge =  0 Multiplicity = 1

                          Input orientation:
 ---------------------------------------------------------------------
 Center     Atomic      Atomic             Coordinates (Angstroms)
 Number     Number       Type             X           Y           Z
 ---------------------------------------------------------------------
      1          6           0        0.000000    0.000000    0.000000
      2          6           0        0.000000    0.000000    1.586614
      3          6           0        1.357838    0.000000   -0.632631
      4          6           0       -0.759086   -1.349979    0.072099
      5          1           0       -0.574676    0.828563   -0.423365
      6          6           0       -0.300458   -1.514657    1.540320
      7          6           0        1.162840    0.547274    2.342418
      8          6           0        1.905081   -0.956820   -1.371586
      9          1           0       -1.837069   -1.198899   -0.006477
     10          1           0       -0.470812   -2.128173   -0.631745
     11          1           0       -0.900874    0.538945    1.902140
     12          1           0        1.931141    0.908391   -0.466674
     13          6           0        1.982677   -0.138895    3.129999
     14          1           0        1.333638    1.615016    2.221443
     15          1           0        0.612622   -2.106649    1.602648
     16          1           0       -1.021614   -1.904320    2.261233
     17          1           0        1.397968   -1.887614   -1.593696
     18          1           0        2.892029   -0.835413   -1.798284
     19          1           0        2.808553    0.341571    3.638571
     20          1           0        1.873768   -1.206276    3.281493
 ---------------------------------------------------------------------

 SCF Done:  E(RB3LYP) =  -312.117305532     A.U. after    1 cycles

 Isotropic polarizability for W=    0.000000       92.32 Bohr**3.
 End of Minotr F.D. properties file   721 does not exist.

                      1                      2                      3
                      A                      A                      A
 Frequencies --     64.2350                94.0440               110.2842
 Red. masses --      2.9172                 2.1741                 2.3439
 Frc consts  --      0.0071                 0.0113                 0.0168
 IR Inten    --      0.0865                 0.0552                 0.0396

                      4                      5                      6
                      A                      A                      A
 Frequencies --    206.4201               251.0593               304.1260
 Red. masses --      2.1390                 2.4460                 2.4194
 Frc consts  --      0.0537                 0.0908                 0.1318
 IR Inten    --      0.0465                 0.4742                 0.2325

                      7                      8                      9
                      A                      A                      A
 Frequencies --    397.6001               494.4775               532.7795
 Red. masses --      2.0183                 2.1547                 2.1280
 Frc consts  --      0.1880                 0.3104                 0.3559
 IR Inten    --      3.1568                 2.7542                 0.9037

                     10                     11                     12
                      A                      A                      A
 Frequencies --    602.6176               642.3039               734.2222
 Red. masses --      1.9836                 2.0102                 1.5047
 Frc consts  --      0.4244                 0.4886                 0.4779
 IR Inten    --      3.2297                 5.4920                 2.3256

                     13                     14                     15
                      A                      A                      A
 Frequencies --    770.1953               813.0859               909.7178
 Red. masses --      1.8130                 2.2000                 2.1944
 Frc consts  --      0.6336                 0.8569                 1.0700
 IR Inten    --      4.2331                 3.0937                 4.5847

                     16                     17                     18
                      A                      A                      A
 Frequencies --    936.6953               945.3718               947.6378
 Red. masses --      2.6468                 2.3177                 1.3700
 Frc consts  --      1.3683                 1.2204                 0.7248
 IR Inten    --      1.5526                 6.5871                42.0350

                     19                     20                     21
                      A                      A                      A
 Frequencies --    960.8923               979.6280              1025.5917
 Red. masses --      1.3500                 1.6915                 1.2165
 Frc consts  --      0.7344                 0.9564                 0.7539
 IR Inten    --     39.2210                 0.3901                 1.4415

                     22                     23                     24
                      A                      A                      A
 Frequencies --   1031.9470              1037.7789              1061.7457
 Red. masses --      1.1521                 1.1334                 1.8512
 Frc consts  --      0.7229                 0.7192                 1.2296
 IR Inten    --      9.0366                 7.7070                 3.1569

                     25                     26                     27
                      A                      A                      A
 Frequencies --   1083.6957              1121.7798              1160.3166
 Red. masses --      1.7823                 1.5404                 1.8166
 Frc consts  --      1.2333                 1.1421                 1.4410
 IR Inten    --      8.1200                 5.5235                 0.4998

                     28                     29                     30
                      A                      A                      A
 Frequencies --   1205.0070              1224.8139              1257.2332
 Red. masses --      1.3364                 1.2814                 1.3566
 Frc consts  --      1.1433                 1.1326                 1.2634
 IR Inten    --      3.0093                 0.8640                 0.3087

                     31                     32                     33
                      A                      A                      A
 Frequencies --   1267.8762              1273.4355              1333.3844
 Red. masses --      1.3306                 1.4570                 1.2984
 Frc consts  --      1.2603                 1.3921                 1.3601
 IR Inten    --      2.9067                 0.0314                 0.4418

                     34                     35                     36
                      A                      A                      A
 Frequencies --   1341.5749              1359.3575              1378.8474
 Red. masses --      1.2896                 1.4318                 1.6651
 Frc consts  --      1.3676                 1.5588                 1.8652
 IR Inten    --      0.1062                 1.9479                 4.4004

                     37                     38                     39
                      A                      A                      A
 Frequencies --   1456.6317              1457.8970              1486.2751
 Red. masses --      1.1956                 1.2085                 1.0945
 Frc consts  --      1.4946                 1.5134                 1.4246
 IR Inten    --      2.3699                 5.9444                 2.2131

                     40                     41                     42
                      A                      A                      A
 Frequencies --   1505.6512              1702.0707              1705.8943
 Red. masses --      1.1271                 4.5500                 4.4836
 Frc consts  --      1.5054                 7.7663                 7.6874
 IR Inten    --      4.7248                17.7534                11.3772

                     43                     44                     45
                      A                      A                      A
 Frequencies --   2996.8892              3028.0101              3045.2547
 Red. masses --      1.0829                 1.0837                 1.0616
 Frc consts  --      5.7304                 5.8541                 5.8006
 IR Inten    --     24.0175                34.9874                54.4821

                     46                     47                     48
                      A                      A                      A
 Frequencies --   3056.9626              3096.0461              3114.4778
 Red. masses --      1.0664                 1.1011                 1.1022
 Frc consts  --      5.8713                 6.2187                 6.2991
 IR Inten    --     52.6542                22.0647                36.2183

                     49                     50                     51
                      A                      A                      A
 Frequencies --   3117.1849              3130.8677              3140.4677
 Red. masses --      1.0848                 1.0839                 1.0628
 Frc consts  --      6.2107                 6.2596                 6.1760
 IR Inten    --      9.5507                14.2958                 5.5169

                     52                     53                     54
                      A                      A                      A
 Frequencies --   3147.5517              3218.6327              3224.7429
 Red. masses --      1.0643                 1.1153                 1.1150
 Frc consts  --      6.2122                 6.8075                 6.8317
 IR Inten    --      5.3852                12.1449                 8.4015

 - Thermochemistry -
 -------------------
 Temperature   298.150 Kelvin.  Pressure   1.00000 Atm.
 Atom     1 has atomic number  6 and mass  12.00000

 Molecular mass:   108.09390 amu.
 Principal axes and moments of inertia in atomic units:
                           1         2         3
     Eigenvalues --   646.175771063.467931370.98655
           X            0.11196   0.91695  -0.38297
           Y            0.21145   0.35459   0.91080
           Z            0.97096  -0.18295  -0.15419
 This molecule is an asymmetric top.
 Rotational symmetry number  1.
 Warning -- assumption of classical behavior for rotation
           may cause significant error
 Rotational temperatures (Kelvin)      0.13404     0.08144     0.06318
 Rotational constants (GHZ):           2.79296     1.69703     1.31638
 Zero-point vibrational energy     463512.8 (Joules/Mol)
                                  110.78222 (Kcal/Mol)
 Warning -- explicit consideration of  10 degrees of freedom as
           vibrations may cause significant error
 Vibrational temperatures:     92.42   135.31   158.67   296.99   361.22
          (Kelvin)            437.57   572.06   711.44   766.55   867.03
                              924.13  1056.38  1108.14  1169.85  1308.88
                             1347.70  1360.18  1363.44  1382.51  1409.47
                             1475.60  1484.74  1493.13  1527.62  1559.20
                             1613.99  1669.44  1733.74  1762.23  1808.88
                             1824.19  1832.19  1918.44  1930.23  1955.81
                             1983.85  2095.77  2097.59  2138.42  2166.30
                             2448.90  2454.40  4311.86  4356.63  4381.44
                             4398.29  4454.52  4481.04  4484.93  4504.62
                             4518.43  4528.62  4630.89  4639.69

 Zero-point correction=                           0.176543 (Hartree/Particle)
 Thermal correction to Energy=                    0.184992
 Thermal correction to Enthalpy=                  0.185936
 Thermal correction to Gibbs Free Energy=         0.143222
 Sum of electronic and zero-point Energies=           -311.940763
 Sum of electronic and thermal Energies=              -311.932313
 Sum of electronic and thermal Enthalpies=            -311.931369
 Sum of electronic and thermal Free Energies=         -311.974083

                     E (Thermal)             CV                S
                      KCal/Mol        Cal/Mol-Kelvin    Cal/Mol-Kelvin
 Total                  116.084             31.623             89.899
 Electronic               0.000              0.000              0.000
 Translational            0.889              2.981             39.950
 Rotational               0.889              2.981             28.334
 Vibrational            114.307             25.661             21.615
 Vibration     1          0.597              1.971              4.323
 Vibration     2          0.603              1.953              3.574
 Vibration     3          0.606              1.941              3.264
 Vibration     4          0.641              1.831              2.075
 Vibration     5          0.663              1.761              1.723
 Vibration     6          0.695              1.666              1.394
 Vibration     7          0.764              1.475              0.972
 Vibration     8          0.850              1.262              0.672
 Vibration     9          0.888              1.177              0.581
 Vibration    10          0.961              1.026              0.445

                       ! Non-Optimized Parameters !
 Normal termination of Gaussian 16 at Fri Jun 10 23:27:37 2022.
