 Gaussian 16, Revision A.03,
 Gaussian 16:  ES64L-G16RevA.03 25-Dec-2016

 ----------------------------------------------------------------------
 # Opt=(TS, CalcFC, noeigentest, Z-matrix, MaxStep=10) geom=allcheckpoi
 nt guess=read Field=read NoSymm B3LYP/Def2TZVP freq=noraman pop=none
 ----------------------------------------------------------------------

 Structure from the checkpoint file:  "checkpoint.chk"
 -----------------
 ts_zmat_initalOpt
 -----------------
 Charge =  0 Multiplicity = 1

 SCF Done:  E(RB3LYP) =  -195.283097127     A.U. after   11 cycles
 SCF Done:  E(RB3LYP) =  -195.283117272     A.U. after   10 cycles
 Optimization completed.
    -- Stationary point found.
 Normal termination of Gaussian 16 at Fri Jun 10 23:50:59 2022.

 --------------------------------------------------------------------
 #N Geom=AllCheck Guess=TCheck SCRF=Check GenChk RB3LYP/def2TZVP Freq
 --------------------------------------------------------------------

 Structure from the checkpoint file:  "checkpoint.chk"
 -----------------
 ts_zmat_initalOpt
 -----------------
 Charge =  0 Multiplicity = 1

                          Input orientation:
 ---------------------------------------------------------------------
 Center     Atomic      Atomic             Coordinates (Angstroms)
 Number     Number       Type             X           Y           Z
 ---------------------------------------------------------------------
      1          1           0        0.000000    0.000000    0.000000
      2          6           0        0.000000    0.000000    1.086903
      3          1           0        0.961186    0.000000    1.572463
      4          6           0       -1.155973    0.246719    1.791057
      5          1           0       -1.962509    0.766994    1.265218
      6          6           0       -1.464543   -0.111100    3.094245
      7          1           0       -2.159200    0.504245    3.657927
      8          6           0       -0.903246   -1.326954    3.791935
      9          1           0       -1.112342   -1.218729    4.862033
     10          1           0       -1.367768   -2.256416    3.456211
     11          6           0        0.520586   -1.235886    3.524048
     12          1           0        1.085872   -0.428389    3.966535
     13          1           0        1.052037   -1.957130    2.922322
 ---------------------------------------------------------------------

 SCF Done:  E(RB3LYP) =  -195.283117272     A.U. after    1 cycles

 Isotropic polarizability for W=    0.000000       74.73 Bohr**3.
 End of Minotr F.D. properties file   721 does not exist.

 ******    1 imaginary frequencies (negative Signs) ******

                      1                      2                      3
                      A                      A                      A
 Frequencies --   -418.3035               217.1581               259.0245
 Red. masses --      1.9527                 2.2534                 2.2239
 Frc consts  --      0.2013                 0.0626                 0.0879
 IR Inten    --      0.5763                 0.4842                 1.9785

                      4                      5                      6
                      A                      A                      A
 Frequencies --    366.1373               544.4208               591.4617
 Red. masses --      2.2249                 1.2816                 1.3573
 Frc consts  --      0.1757                 0.2238                 0.2798
 IR Inten    --      6.0047                11.2094                 2.8975

                      7                      8                      9
                      A                      A                      A
 Frequencies --    653.4602               690.2085               740.9117
 Red. masses --      1.5340                 1.2641                 1.3075
 Frc consts  --      0.3859                 0.3548                 0.4229
 IR Inten    --      9.9816                72.6633                13.5849

                     10                     11                     12
                      A                      A                      A
 Frequencies --    789.8874               830.5791               887.3731
 Red. masses --      1.3721                 1.5044                 1.5088
 Frc consts  --      0.5044                 0.6115                 0.7000
 IR Inten    --     15.5144                11.1990                 6.4263

                     13                     14                     15
                      A                      A                      A
 Frequencies --    926.2702              1027.2141              1059.9004
 Red. masses --      1.8352                 1.5688                 1.6490
 Frc consts  --      0.9277                 0.9753                 1.0914
 IR Inten    --      6.3565                 0.0444                14.8947

                     16                     17                     18
                      A                      A                      A
 Frequencies --   1136.0416              1157.7369              1215.2209
 Red. masses --      2.0016                 2.0689                 1.2532
 Frc consts  --      1.5220                 1.6338                 1.0904
 IR Inten    --     20.2447                 1.4788                 9.1321

                     19                     20                     21
                      A                      A                      A
 Frequencies --   1266.4511              1309.5357              1398.3444
 Red. masses --      1.2545                 1.2967                 1.3494
 Frc consts  --      1.1855                 1.3101                 1.5546
 IR Inten    --     20.1261                 6.4484                 1.7135

                     22                     23                     24
                      A                      A                      A
 Frequencies --   1422.7830              1482.9546              1499.1023
 Red. masses --      1.1174                 1.3111                 1.3917
 Frc consts  --      1.3327                 1.6988                 1.8427
 IR Inten    --     14.8643                 8.8362                 0.6942

                     25                     26                     27
                      A                      A                      A
 Frequencies --   1586.1732              3019.7380              3036.4480
 Red. masses --      4.1147                 1.0588                 1.0817
 Frc consts  --      6.0995                 5.6886                 5.8760
 IR Inten    --     36.9555                 4.7727                44.2045

                     28                     29                     30
                      A                      A                      A
 Frequencies --   3067.7989              3109.0565              3147.1373
 Red. masses --      1.1018                 1.0676                 1.0882
 Frc consts  --      6.1096                 6.0799                 6.3500
 IR Inten    --     15.8539                48.8903                 5.3924

                     31                     32                     33
                      A                      A                      A
 Frequencies --   3166.4647              3249.9485              3270.4592
 Red. masses --      1.0517                 1.1000                 1.1191
 Frc consts  --      6.2129                 6.8454                 7.0523
 IR Inten    --      4.5668                11.6909                 1.7491

 - Thermochemistry -
 -------------------
 Temperature   298.150 Kelvin.  Pressure   1.00000 Atm.
 Atom     1 has atomic number  1 and mass   1.00783

 Molecular mass:    68.06260 amu.
 Principal axes and moments of inertia in atomic units:
                           1         2         3
     Eigenvalues --   211.48780 404.65258 568.29701
           X            0.05882   0.93096   0.36034
           Y           -0.49702  -0.28574   0.81935
           Z            0.86574  -0.22729   0.44590
 This molecule is an asymmetric top.
 Rotational symmetry number  1.
 Rotational temperatures (Kelvin)      0.40955     0.21405     0.15241
 Rotational constants (GHZ):           8.53355     4.45998     3.17570
    1 imaginary frequencies ignored.
 Zero-point vibrational energy     287853.8 (Joules/Mol)
                                   68.79872 (Kcal/Mol)
 Warning -- explicit consideration of   5 degrees of freedom as
           vibrations may cause significant error
 Vibrational temperatures:    312.44   372.68   526.79   783.30   850.98
          (Kelvin)            940.18   993.06  1066.01  1136.47  1195.02
                             1276.73  1332.70  1477.93  1524.96  1634.51
                             1665.73  1748.43  1822.14  1884.13  2011.91
                             2047.07  2133.64  2156.87  2282.15  4344.73
                             4368.77  4413.88  4473.24  4528.03  4555.84
                             4675.95  4705.46

 Zero-point correction=                           0.109638 (Hartree/Particle)
 Thermal correction to Energy=                    0.114955
 Thermal correction to Enthalpy=                  0.115899
 Thermal correction to Gibbs Free Energy=         0.081799
 Sum of electronic and zero-point Energies=           -195.173480
 Sum of electronic and thermal Energies=              -195.168162
 Sum of electronic and thermal Enthalpies=            -195.167218
 Sum of electronic and thermal Free Energies=         -195.201318

                     E (Thermal)             CV                S
                      KCal/Mol        Cal/Mol-Kelvin    Cal/Mol-Kelvin
 Total                   72.135             20.110             71.769
 Electronic               0.000              0.000              0.000
 Translational            0.889              2.981             38.571
 Rotational               0.889              2.981             25.389
 Vibrational             70.358             14.148              7.809
 Vibration     1          0.646              1.815              1.983
 Vibration     2          0.668              1.747              1.668
 Vibration     3          0.739              1.542              1.096
 Vibration     4          0.900              1.152              0.556
 Vibration     5          0.949              1.050              0.465

 Optimization completed.
    -- Stationary point found.
 Normal termination of Gaussian 16 at Fri Jun 10 23:53:18 2022.
