 Gaussian 16, Revision A.03,
 Gaussian 16:  ES64L-G16RevA.03 25-Dec-2016

 ----------------------------------------------------------------------
 # Opt=(TS, CalcFC, noeigentest, Z-matrix, MaxStep=10) geom=allcheckpoi
 nt guess=read Field=read NoSymm B3LYP/Def2TZVP freq=noraman pop=none
 ----------------------------------------------------------------------

 Structure from the checkpoint file:  "checkpoint.chk"
 -----------------
 ts_zmat_initalOpt
 -----------------
 Charge =  0 Multiplicity = 1

 SCF Done:  E(RB3LYP) =  -195.278414581     A.U. after   11 cycles
 SCF Done:  E(RB3LYP) =  -195.278426539     A.U. after   10 cycles
 Optimization completed.
    -- Stationary point found.
 Normal termination of Gaussian 16 at Fri Jun 10 22:48:29 2022.

 --------------------------------------------------------------------
 #N Geom=AllCheck Guess=TCheck SCRF=Check GenChk RB3LYP/def2TZVP Freq
 --------------------------------------------------------------------

 Structure from the checkpoint file:  "checkpoint.chk"
 -----------------
 ts_zmat_initalOpt
 -----------------
 Charge =  0 Multiplicity = 1

                          Input orientation:
 ---------------------------------------------------------------------
 Center     Atomic      Atomic             Coordinates (Angstroms)
 Number     Number       Type             X           Y           Z
 ---------------------------------------------------------------------
      1          1           0        0.000000    0.000000    0.000000
      2          6           0        0.000000    0.000000    1.085345
      3          1           0        0.960098    0.000000    1.573053
      4          6           0       -1.154165    0.220396    1.794412
      5          1           0       -1.970818    0.733596    1.279014
      6          6           0       -1.445577   -0.164996    3.095532
      7          1           0       -2.136915    0.435441    3.680044
      8          6           0       -0.876541   -1.398711    3.749095
      9          1           0       -1.086273   -1.335741    4.822385
     10          1           0       -1.332923   -2.317863    3.374483
     11          6           0        0.549314   -1.289878    3.477760
     12          1           0        1.111564   -0.492119    3.941058
     13          1           0        1.078425   -1.978588    2.837648
 ---------------------------------------------------------------------

 SCF Done:  E(RB3LYP) =  -195.278426539     A.U. after    1 cycles

 Isotropic polarizability for W=    0.000000       74.53 Bohr**3.
 End of Minotr F.D. properties file   721 does not exist.

 ******    1 imaginary frequencies (negative Signs) ******

                      1                      2                      3
                      A                      A                      A
 Frequencies --   -424.2604               220.0854               259.0694
 Red. masses --      1.9600                 2.2059                 2.2867
 Frc consts  --      0.2079                 0.0630                 0.0904
 IR Inten    --      0.1681                 0.2858                 0.9168

                      4                      5                      6
                      A                      A                      A
 Frequencies --    371.2300               547.5531               589.4000
 Red. masses --      2.2698                 1.2925                 1.3227
 Frc consts  --      0.1843                 0.2283                 0.2707
 IR Inten    --      6.1416                 8.7439                 3.0907

                      7                      8                      9
                      A                      A                      A
 Frequencies --    655.5743               709.3086               755.1661
 Red. masses --      1.4965                 1.3127                 1.2554
 Frc consts  --      0.3789                 0.3891                 0.4218
 IR Inten    --     10.3456                47.2286                51.5255

                     10                     11                     12
                      A                      A                      A
 Frequencies --    776.6095               826.7609               892.6953
 Red. masses --      1.3963                 1.4880                 1.4836
 Frc consts  --      0.4962                 0.5993                 0.6966
 IR Inten    --     10.2342                 9.7607                 4.5541

                     13                     14                     15
                      A                      A                      A
 Frequencies --    928.2475              1028.6673              1062.3311
 Red. masses --      1.8720                 1.5639                 1.6571
 Frc consts  --      0.9503                 0.9750                 1.1018
 IR Inten    --      3.7871                 0.0182                13.8160

                     16                     17                     18
                      A                      A                      A
 Frequencies --   1132.7368              1154.9603              1218.4360
 Red. masses --      2.1329                 1.9629                 1.2525
 Frc consts  --      1.6124                 1.5427                 1.0955
 IR Inten    --     17.1548                 0.4015                 6.4983

                     19                     20                     21
                      A                      A                      A
 Frequencies --   1266.1657              1307.9538              1399.5511
 Red. masses --      1.2624                 1.3006                 1.3590
 Frc consts  --      1.1924                 1.3110                 1.5684
 IR Inten    --     18.0812                 6.4782                 2.7426

                     22                     23                     24
                      A                      A                      A
 Frequencies --   1424.1943              1482.8006              1498.1701
 Red. masses --      1.1128                 1.2781                 1.4311
 Frc consts  --      1.3298                 1.6557                 1.8925
 IR Inten    --     12.4196                 7.5345                 1.3360

                     25                     26                     27
                      A                      A                      A
 Frequencies --   1590.1841              3015.9364              3049.7641
 Red. masses --      4.0787                 1.0579                 1.0823
 Frc consts  --      6.0767                 5.6694                 5.9309
 IR Inten    --     24.9344                12.5825                28.5033

                     28                     29                     30
                      A                      A                      A
 Frequencies --   3061.7036              3129.7194              3139.1124
 Red. masses --      1.1025                 1.0655                 1.0879
 Frc consts  --      6.0889                 6.1491                 6.3161
 IR Inten    --     13.1636                25.1791                 9.1858

                     31                     32                     33
                      A                      A                      A
 Frequencies --   3167.2289              3254.3845              3271.0377
 Red. masses --      1.0516                 1.1030                 1.1189
 Frc consts  --      6.2150                 6.8828                 7.0535
 IR Inten    --      3.8494                11.2563                 2.0121

 - Thermochemistry -
 -------------------
 Temperature   298.150 Kelvin.  Pressure   1.00000 Atm.
 Atom     1 has atomic number  1 and mass   1.00783

 Molecular mass:    68.06260 amu.
 Principal axes and moments of inertia in atomic units:
                           1         2         3
     Eigenvalues --   211.90597 402.44822 565.69120
           X            0.07056   0.93110   0.35788
           Y           -0.51827  -0.27233   0.81070
           Z            0.85230  -0.24269   0.46334
 This molecule is an asymmetric top.
 Rotational symmetry number  1.
 Rotational temperatures (Kelvin)      0.40874     0.21522     0.15311
 Rotational constants (GHZ):           8.51671     4.48441     3.19033
    1 imaginary frequencies ignored.
 Zero-point vibrational energy     288220.7 (Joules/Mol)
                                   68.88640 (Kcal/Mol)
 Warning -- explicit consideration of   5 degrees of freedom as
           vibrations may cause significant error
 Vibrational temperatures:    316.65   372.74   534.12   787.81   848.02
          (Kelvin)            943.23  1020.54  1086.52  1117.37  1189.52
                             1284.39  1335.54  1480.02  1528.46  1629.76
                             1661.73  1753.06  1821.73  1881.85  2013.64
                             2049.10  2133.42  2155.53  2287.92  4339.26
                             4387.93  4405.11  4502.97  4516.48  4556.94
                             4682.33  4706.29

 Zero-point correction=                           0.109777 (Hartree/Particle)
 Thermal correction to Energy=                    0.115074
 Thermal correction to Enthalpy=                  0.116018
 Thermal correction to Gibbs Free Energy=         0.081959
 Sum of electronic and zero-point Energies=           -195.168649
 Sum of electronic and thermal Energies=              -195.163353
 Sum of electronic and thermal Enthalpies=            -195.162408
 Sum of electronic and thermal Free Energies=         -195.196467

                     E (Thermal)             CV                S
                      KCal/Mol        Cal/Mol-Kelvin    Cal/Mol-Kelvin
 Total                   72.210             20.043             71.682
 Electronic               0.000              0.000              0.000
 Translational            0.889              2.981             38.571
 Rotational               0.889              2.981             25.381
 Vibrational             70.433             14.081              7.730
 Vibration     1          0.647              1.810              1.958
 Vibration     2          0.668              1.747              1.668
 Vibration     3          0.743              1.531              1.075
 Vibration     4          0.903              1.145              0.549
 Vibration     5          0.947              1.054              0.468

 Optimization completed.
    -- Stationary point found.
 Normal termination of Gaussian 16 at Fri Jun 10 22:50:50 2022.
