 Gaussian 16, Revision A.03,
 Gaussian 16:  ES64L-G16RevA.03 25-Dec-2016

 ----------------------------------------------------------------------
 # Opt=(Z-matrix, MaxStep=10) B3LYP/Def2TZVP geom=allcheckpoint guess=r
 ead Field=read NoSymm freq=noraman pop=none
 ----------------------------------------------------------------------

 Structure from the checkpoint file:  "checkpoint.chk"
 ------------------
 int_zmat_initalOpt
 ------------------
 Charge =  0 Multiplicity = 1

 SCF Done:  E(RB3LYP) =  -439.161737209     A.U. after   11 cycles
 SCF Done:  E(RB3LYP) =  -439.161262563     A.U. after   14 cycles
 SCF Done:  E(RB3LYP) =  -439.160442266     A.U. after   14 cycles
 SCF Done:  E(RB3LYP) =  -439.161759253     A.U. after   13 cycles
 SCF Done:  E(RB3LYP) =  -439.160053565     A.U. after   14 cycles
 SCF Done:  E(RB3LYP) =  -439.161767252     A.U. after   12 cycles
 SCF Done:  E(RB3LYP) =  -439.161794700     A.U. after   11 cycles
 SCF Done:  E(RB3LYP) =  -439.161791686     A.U. after   11 cycles
 SCF Done:  E(RB3LYP) =  -439.161835956     A.U. after   11 cycles
 SCF Done:  E(RB3LYP) =  -439.161839172     A.U. after   12 cycles
 SCF Done:  E(RB3LYP) =  -439.161856997     A.U. after    9 cycles
 SCF Done:  E(RB3LYP) =  -439.161854744     A.U. after   10 cycles
 SCF Done:  E(RB3LYP) =  -439.161858006     A.U. after   10 cycles
 SCF Done:  E(RB3LYP) =  -439.161858421     A.U. after    9 cycles
 SCF Done:  E(RB3LYP) =  -439.161859726     A.U. after    9 cycles
 SCF Done:  E(RB3LYP) =  -439.161859468     A.U. after   11 cycles
 SCF Done:  E(RB3LYP) =  -439.161860661     A.U. after   10 cycles
 SCF Done:  E(RB3LYP) =  -439.161860746     A.U. after    9 cycles
 SCF Done:  E(RB3LYP) =  -439.161861090     A.U. after    9 cycles
 Optimization completed.
    -- Stationary point found.
 Normal termination of Gaussian 16 at Sat Jun 11 01:06:54 2022.

 --------------------------------------------------------------------
 #N Geom=AllCheck Guess=TCheck SCRF=Check GenChk RB3LYP/def2TZVP Freq
 --------------------------------------------------------------------

 Structure from the checkpoint file:  "checkpoint.chk"
 ------------------
 int_zmat_initalOpt
 ------------------
 Charge =  0 Multiplicity = 1

                          Input orientation:
 ---------------------------------------------------------------------
 Center     Atomic      Atomic             Coordinates (Angstroms)
 Number     Number       Type             X           Y           Z
 ---------------------------------------------------------------------
      1          1           0        0.000000    0.000000    0.000000
      2          7           0        0.000000    0.000000    1.006371
      3          6           0        1.100276    0.000000    1.800668
      4          6           0       -1.155626    0.061621    1.765748
      5          1           0        2.093946   -0.037468    1.387496
      6          6           0        0.670852    0.052079    3.111140
      7          6           0       -0.738515    0.088834    3.094904
      8          6           0       -2.418309    0.144941    1.086522
      9          1           0        1.310284    0.066697    3.977674
     10          1           0       -2.322895    0.193751    0.005342
     11          1           0       -1.370945    0.155416    3.962115
     12          6           0       -3.691952    0.207565    1.526757
     13          1           0       -4.452250    0.341174    0.766871
     14          6           0       -4.253531    0.146081    2.873953
     15          1           0       -5.229434    0.598759    3.030453
     16          6           0       -3.821597   -0.452359    3.962705
     17          8           0       -3.512213   -0.959785    4.965481
 ---------------------------------------------------------------------

 SCF Done:  E(RB3LYP) =  -439.161861090     A.U. after    1 cycles

 Isotropic polarizability for W=    0.000000      111.12 Bohr**3.
 End of Minotr F.D. properties file   721 does not exist.

                      1                      2                      3
                      A                      A                      A
 Frequencies --     40.3242                47.7725               110.5057
 Red. masses --      4.0098                 3.2801                 7.7073
 Frc consts  --      0.0038                 0.0044                 0.0555
 IR Inten    --      2.3815                 1.3664                 1.4338

                      4                      5                      6
                      A                      A                      A
 Frequencies --    166.9389               207.6765               322.0045
 Red. masses --      5.5129                 3.5024                 5.2253
 Frc consts  --      0.0905                 0.0890                 0.3192
 IR Inten    --      2.8719                 1.7098                 1.8343

                      7                      8                      9
                      A                      A                      A
 Frequencies --    449.7997               485.0900               521.6995
 Red. masses --      2.0889                 6.7430                 1.4506
 Frc consts  --      0.2490                 0.9349                 0.2326
 IR Inten    --     17.2512                 6.4098                39.2095

                     10                     11                     12
                      A                      A                      A
 Frequencies --    542.1940               584.7346               625.5445
 Red. masses --      4.0396                 2.2280                 2.4439
 Frc consts  --      0.6997                 0.4488                 0.5634
 IR Inten    --     11.0006                50.2977                 0.3797

                     13                     14                     15
                      A                      A                      A
 Frequencies --    652.2733               675.4338               742.6032
 Red. masses --      6.0843                 2.4786                 1.3245
 Frc consts  --      1.5252                 0.6662                 0.4303
 IR Inten    --      4.0902                18.4356                19.9865

                     16                     17                     18
                      A                      A                      A
 Frequencies --    748.3048               810.9281               831.9892
 Red. masses --      1.4086                 1.4967                 4.9208
 Frc consts  --      0.4647                 0.5799                 2.0069
 IR Inten    --     91.3171                 5.1859                22.1394

                     19                     20                     21
                      A                      A                      A
 Frequencies --    884.2487               895.9560               920.0418
 Red. masses --      1.3271                 5.3607                 4.5786
 Frc consts  --      0.6114                 2.5354                 2.2835
 IR Inten    --      0.0978                 0.8373                17.9859

                     22                     23                     24
                      A                      A                      A
 Frequencies --    944.2710               983.1845              1072.0691
 Red. masses --      1.2489                 2.6696                 1.3235
 Frc consts  --      0.6561                 1.5204                 0.8962
 IR Inten    --      1.2161                 2.6438                22.0653

                     25                     26                     27
                      A                      A                      A
 Frequencies --   1124.2073              1145.5094              1153.4166
 Red. masses --      1.7953                 1.5053                 1.4896
 Frc consts  --      1.3368                 1.1638                 1.1676
 IR Inten    --      8.0960                68.7599                17.9602

                     28                     29                     30
                      A                      A                      A
 Frequencies --   1241.3462              1262.3466              1325.2395
 Red. masses --      2.4236                 1.4828                 1.4112
 Frc consts  --      2.2004                 1.3921                 1.4602
 IR Inten    --      6.5580                 1.1054                 3.0805

                     31                     32                     33
                      A                      A                      A
 Frequencies --   1418.8945              1430.6201              1450.9736
 Red. masses --      2.7710                 2.4984                 2.7034
 Frc consts  --      3.2869                 3.0127                 3.3534
 IR Inten    --     21.4701                 0.8954                19.6041

                     34                     35                     36
                      A                      A                      A
 Frequencies --   1477.4583              1482.3521              1591.7618
 Red. masses --      2.0765                 3.1940                 3.2417
 Frc consts  --      2.6707                 4.1351                 4.8392
 IR Inten    --     66.4308                52.3421                 1.3121

                     37                     38                     39
                      A                      A                      A
 Frequencies --   1666.2744              2167.8068              3128.0465
 Red. masses --      6.3704                12.5857                 1.0816
 Frc consts  --     10.4211                34.8472                 6.2351
 IR Inten    --     68.6315               685.3860                 6.5478

                     40                     41                     42
                      A                      A                      A
 Frequencies --   3131.4908              3165.5825              3247.5135
 Red. masses --      1.0848                 1.0896                 1.0906
 Frc consts  --      6.2676                 6.4333                 6.7768
 IR Inten    --      5.3530                11.5767                 5.5900

                     43                     44                     45
                      A                      A                      A
 Frequencies --   3267.3484              3274.2457              3636.4677
 Red. masses --      1.0971                 1.1011                 1.0807
 Frc consts  --      6.9009                 6.9552                 8.4204
 IR Inten    --      1.1868                 4.0136                85.7355

 - Thermochemistry -
 -------------------
 Temperature   298.150 Kelvin.  Pressure   1.00000 Atm.
 Atom     1 has atomic number  1 and mass   1.00783

 Molecular mass:   133.05276 amu.
 Principal axes and moments of inertia in atomic units:
                           1         2         3
     Eigenvalues --   714.548102000.188932663.48087
           X            0.92577   0.37808  -0.00134
           Y            0.08178  -0.19678   0.97703
           Z           -0.36914   0.90462   0.21309
 This molecule is an asymmetric top.
 Rotational symmetry number  1.
 Warning -- assumption of classical behavior for rotation
           may cause significant error
 Rotational temperatures (Kelvin)      0.12121     0.04330     0.03252
 Rotational constants (GHZ):           2.52571     0.90229     0.67759
 Zero-point vibrational energy     341261.6 (Joules/Mol)
                                   81.56349 (Kcal/Mol)
 Warning -- explicit consideration of  11 degrees of freedom as
           vibrations may cause significant error
 Vibrational temperatures:     58.02    68.73   158.99   240.19   298.80
          (Kelvin)            463.29   647.16   697.94   750.61   780.10
                              841.30   900.02   938.48   971.80  1068.44
                             1076.64  1166.74  1197.05  1272.24  1289.08
                             1323.73  1358.60  1414.58  1542.47  1617.48
                             1648.13  1659.51  1786.02  1816.24  1906.72
                             2041.47  2058.34  2087.63  2125.73  2132.77
                             2290.19  2397.40  3118.99  4500.56  4505.52
                             4554.57  4672.45  4700.99  4710.91  5232.07

 Zero-point correction=                           0.129980 (Hartree/Particle)
 Thermal correction to Energy=                    0.139001
 Thermal correction to Enthalpy=                  0.139945
 Thermal correction to Gibbs Free Energy=         0.094465
 Sum of electronic and zero-point Energies=           -439.031881
 Sum of electronic and thermal Energies=              -439.022860
 Sum of electronic and thermal Enthalpies=            -439.021916
 Sum of electronic and thermal Free Energies=         -439.067396

                     E (Thermal)             CV                S
                      KCal/Mol        Cal/Mol-Kelvin    Cal/Mol-Kelvin
 Total                   87.224             33.187             95.721
 Electronic               0.000              0.000              0.000
 Translational            0.889              2.981             40.569
 Rotational               0.889              2.981             29.722
 Vibrational             85.447             27.225             25.430
 Vibration     1          0.594              1.981              5.243
 Vibration     2          0.595              1.978              4.908
 Vibration     3          0.606              1.941              3.260
 Vibration     4          0.624              1.883              2.470
 Vibration     5          0.641              1.829              2.064
 Vibration     6          0.707              1.631              1.300
 Vibration     7          0.809              1.361              0.796
 Vibration     8          0.841              1.283              0.696
 Vibration     9          0.877              1.202              0.606
 Vibration    10          0.897              1.157              0.561
 Vibration    11          0.942              1.064              0.477

                       ! Non-Optimized Parameters !
 Normal termination of Gaussian 16 at Sat Jun 11 01:17:43 2022.
