 Gaussian 16, Revision A.03,
 Gaussian 16:  ES64L-G16RevA.03 25-Dec-2016

 ----------------------------------------------------------------------
 # Opt=(Z-matrix, MaxStep=10) B3LYP/Def2TZVP Field=read NoSymm freq=nor
 aman pop=none
 ----------------------------------------------------------------------

 ------------------
 int_zmat_initalOpt
 ------------------
 Symbolic Z-matrix:
 Charge =  0 Multiplicity = 1

 SCF Done:  E(RB3LYP) =  -312.116776338     A.U. after   13 cycles
 SCF Done:  E(RB3LYP) =  -312.116785461     A.U. after    8 cycles
 SCF Done:  E(RB3LYP) =  -312.116786491     A.U. after    7 cycles
 Optimization completed.
    -- Stationary point found.
 Normal termination of Gaussian 16 at Fri Jun 10 22:28:16 2022.

 --------------------------------------------------------------------
 #N Geom=AllCheck Guess=TCheck SCRF=Check GenChk RB3LYP/def2TZVP Freq
 --------------------------------------------------------------------

 Structure from the checkpoint file:  "checkpoint.chk"
 ------------------
 int_zmat_initalOpt
 ------------------
 Charge =  0 Multiplicity = 1

                          Input orientation:
 ---------------------------------------------------------------------
 Center     Atomic      Atomic             Coordinates (Angstroms)
 Number     Number       Type             X           Y           Z
 ---------------------------------------------------------------------
      1          1           0        0.000000    0.000000    0.000000
      2          6           0        0.000000    0.000000    1.088774
      3          6           0        1.375744    0.000000    1.796335
      4          6           0       -0.357156    1.324893    1.810341
      5          1           0       -0.635724   -0.817996    1.430987
      6          1           0       -1.343509    1.342034    2.284330
      7          6           0        0.810717    0.996753    2.832539
      8          6           0       -0.184878    2.600191    1.045692
      9          1           0        2.141508    0.459179    1.171417
     10          1           0        1.754751   -0.949443    2.173656
     11          1           0        0.358889    0.439255    3.660199
     12          1           0       -0.221668    3.498703    1.656987
     13          6           0        1.644623    2.092683    3.405317
     14          6           0       -0.001684    2.744039   -0.261485
     15          1           0        0.054961    1.901223   -0.939028
     16          1           0        0.107776    3.725892   -0.704122
     17          6           0        2.944550    2.275214    3.207660
     18          1           0        1.117126    2.783806    4.060025
     19          1           0        3.477433    3.090026    3.680312
     20          1           0        3.528693    1.618030    2.575043
 ---------------------------------------------------------------------

 SCF Done:  E(RB3LYP) =  -312.116786491     A.U. after    1 cycles

 Isotropic polarizability for W=    0.000000       92.24 Bohr**3.
 End of Minotr F.D. properties file   721 does not exist.

                      1                      2                      3
                      A                      A                      A
 Frequencies --     63.9744                95.3931               109.4305
 Red. masses --      2.9217                 2.1888                 2.3284
 Frc consts  --      0.0070                 0.0117                 0.0164
 IR Inten    --      0.0212                 0.0439                 0.0468

                      4                      5                      6
                      A                      A                      A
 Frequencies --    205.8211               250.9223               303.3317
 Red. masses --      2.1328                 2.4342                 2.4175
 Frc consts  --      0.0532                 0.0903                 0.1311
 IR Inten    --      0.0567                 0.4180                 0.4448

                      7                      8                      9
                      A                      A                      A
 Frequencies --    397.7523               493.3643               532.1532
 Red. masses --      2.0056                 2.1665                 2.1313
 Frc consts  --      0.1869                 0.3107                 0.3556
 IR Inten    --      3.2750                 2.0731                 0.8800

                     10                     11                     12
                      A                      A                      A
 Frequencies --    602.3059               642.3943               734.9915
 Red. masses --      1.9633                 2.0258                 1.5175
 Frc consts  --      0.4196                 0.4926                 0.4830
 IR Inten    --      3.3515                 5.2245                 2.4635

                     13                     14                     15
                      A                      A                      A
 Frequencies --    769.0962               813.7391               909.4403
 Red. masses --      1.8124                 2.1973                 2.1685
 Frc consts  --      0.6316                 0.8573                 1.0567
 IR Inten    --      4.9434                 2.7738                 4.6796

                     16                     17                     18
                      A                      A                      A
 Frequencies --    937.3722               942.9885               948.6495
 Red. masses --      2.6801                 1.5978                 1.9102
 Frc consts  --      1.3875                 0.8371                 1.0128
 IR Inten    --      1.7899                29.2218                14.9997

                     19                     20                     21
                      A                      A                      A
 Frequencies --    960.2012               978.8866              1026.2640
 Red. masses --      1.3363                 1.6925                 1.2983
 Frc consts  --      0.7259                 0.9555                 0.8056
 IR Inten    --     40.4002                 0.2735                 0.4169

                     22                     23                     24
                      A                      A                      A
 Frequencies --   1030.0732              1036.4836              1062.9970
 Red. masses --      1.1002                 1.1216                 1.8510
 Frc consts  --      0.6878                 0.7099                 1.2323
 IR Inten    --     11.7174                 8.0614                 1.6780

                     25                     26                     27
                      A                      A                      A
 Frequencies --   1082.2826              1122.1144              1160.5390
 Red. masses --      1.7541                 1.5248                 1.8191
 Frc consts  --      1.2105                 1.1312                 1.4435
 IR Inten    --     10.6658                 5.4361                 0.4197

                     28                     29                     30
                      A                      A                      A
 Frequencies --   1204.2468              1227.7425              1256.2929
 Red. masses --      1.3503                 1.2910                 1.3465
 Frc consts  --      1.1537                 1.1466                 1.2521
 IR Inten    --      2.3807                 0.7321                 0.0822

                     31                     32                     33
                      A                      A                      A
 Frequencies --   1268.9041              1276.0580              1333.1222
 Red. masses --      1.3419                 1.4355                 1.2998
 Frc consts  --      1.2730                 1.3772                 1.3611
 IR Inten    --      2.8489                 0.1590                 0.9700

                     34                     35                     36
                      A                      A                      A
 Frequencies --   1340.9348              1359.0352              1379.2894
 Red. masses --      1.2896                 1.4423                 1.6651
 Frc consts  --      1.3662                 1.5696                 1.8664
 IR Inten    --      0.0106                 1.2601                 4.5152

                     37                     38                     39
                      A                      A                      A
 Frequencies --   1454.2262              1459.5777              1488.0978
 Red. masses --      1.1980                 1.2085                 1.0922
 Frc consts  --      1.4927                 1.5169                 1.4250
 IR Inten    --      2.3754                 5.7371                 2.6293

                     40                     41                     42
                      A                      A                      A
 Frequencies --   1506.3870              1702.1188              1704.5939
 Red. masses --      1.1259                 4.5182                 4.5194
 Frc consts  --      1.5053                 7.7125                 7.7370
 IR Inten    --      4.5406                20.0136                11.6134

                     43                     44                     45
                      A                      A                      A
 Frequencies --   3004.9963              3020.2571              3057.3716
 Red. masses --      1.0832                 1.0836                 1.0621
 Frc consts  --      5.7632                 5.8239                 5.8495
 IR Inten    --     12.2486                47.4104                51.1894

                     46                     47                     48
                      A                      A                      A
 Frequencies --   3064.0380              3100.1441              3111.6814
 Red. masses --      1.0592                 1.1038                 1.0854
 Frc consts  --      5.8589                 6.2501                 6.1921
 IR Inten    --     26.6400                14.8317                13.1844

                     49                     50                     51
                      A                      A                      A
 Frequencies --   3115.3577              3124.0573              3144.6556
 Red. masses --      1.1071                 1.0832                 1.0636
 Frc consts  --      6.3305                 6.2289                 6.1972
 IR Inten    --     41.3814                19.2893                 7.3076

                     52                     53                     54
                      A                      A                      A
 Frequencies --   3145.1224              3219.0422              3223.3117
 Red. masses --      1.0623                 1.1151                 1.1157
 Frc consts  --      6.1914                 6.8080                 6.8295
 IR Inten    --      3.6279                13.2301                10.3467

 - Thermochemistry -
 -------------------
 Temperature   298.150 Kelvin.  Pressure   1.00000 Atm.
 Atom     1 has atomic number  1 and mass   1.00783

 Molecular mass:   108.09390 amu.
 Principal axes and moments of inertia in atomic units:
                           1         2         3
     Eigenvalues --   646.320021063.245741370.85578
           X            0.66345   0.12239   0.73814
           Y           -0.00219   0.98684  -0.16166
           Z            0.74822  -0.10564  -0.65499
 This molecule is an asymmetric top.
 Rotational symmetry number  1.
 Warning -- assumption of classical behavior for rotation
           may cause significant error
 Rotational temperatures (Kelvin)      0.13401     0.08146     0.06318
 Rotational constants (GHZ):           2.79233     1.69739     1.31651
 Zero-point vibrational energy     463574.6 (Joules/Mol)
                                  110.79699 (Kcal/Mol)
 Warning -- explicit consideration of  10 degrees of freedom as
           vibrations may cause significant error
 Vibrational temperatures:     92.04   137.25   157.45   296.13   361.02
          (Kelvin)            436.43   572.28   709.84   765.65   866.58
                              924.26  1057.49  1106.56  1170.79  1308.48
                             1348.67  1356.75  1364.89  1381.52  1408.40
                             1476.57  1482.05  1491.27  1529.42  1557.16
                             1614.47  1669.76  1732.64  1766.45  1807.53
                             1825.67  1835.96  1918.07  1929.31  1955.35
                             1984.49  2092.31  2100.01  2141.04  2167.35
                             2448.97  2452.53  4323.52  4345.48  4398.88
                             4408.47  4460.42  4477.02  4482.30  4494.82
                             4524.46  4525.13  4631.48  4637.63

 Zero-point correction=                           0.176566 (Hartree/Particle)
 Thermal correction to Energy=                    0.185019
 Thermal correction to Enthalpy=                  0.185963
 Thermal correction to Gibbs Free Energy=         0.143244
 Sum of electronic and zero-point Energies=           -311.940220
 Sum of electronic and thermal Energies=              -311.931768
 Sum of electronic and thermal Enthalpies=            -311.930823
 Sum of electronic and thermal Free Energies=         -311.973543

                     E (Thermal)             CV                S
                      KCal/Mol        Cal/Mol-Kelvin    Cal/Mol-Kelvin
 Total                  116.101             31.631             89.910
 Electronic               0.000              0.000              0.000
 Translational            0.889              2.981             39.950
 Rotational               0.889              2.981             28.334
 Vibrational            114.324             25.670             21.626
 Vibration     1          0.597              1.971              4.331
 Vibration     2          0.603              1.952              3.546
 Vibration     3          0.606              1.942              3.279
 Vibration     4          0.640              1.832              2.080
 Vibration     5          0.663              1.761              1.724
 Vibration     6          0.695              1.667              1.398
 Vibration     7          0.764              1.475              0.971
 Vibration     8          0.849              1.265              0.675
 Vibration     9          0.887              1.179              0.582
 Vibration    10          0.961              1.027              0.446

 Optimization completed.
    -- Stationary point found.
 Normal termination of Gaussian 16 at Fri Jun 10 22:38:26 2022.
