 Gaussian 16, Revision A.03,
 Gaussian 16:  ES64L-G16RevA.03 25-Dec-2016

 ------------------------------------------
 # Opt B3LYP/Def2TZVP freq=noraman pop=none
 ------------------------------------------

 -------------
 int_initalOpt
 -------------
 Symbolic Z-matrix:
 Charge =  0 Multiplicity = 1

 SCF Done:  E(RB3LYP) =  -387.391422067     A.U. after   14 cycles
 Optimization completed.
    -- Stationary point found.

 1\1\GINC-BHC0021\FOpt\RB3LYP\def2TZVP\C8H12O1\DHANAWAY\10-Jun-2022\0\\
 # Opt B3LYP/Def2TZVP freq=noraman pop=none\\int_initalOpt\\0,1\C,-2.95
 2204,-1.050909,-0.230307\C,-1.502688,-1.0875,0.150856\H,-3.284436,-0.0
 52938,-0.516403\H,-3.583663,-1.388231,0.597471\H,-3.152931,-1.723858,-
 1.069424\C,-0.680506,-0.045227,0.177822\C,-1.023578,1.384118,-0.194121
 \O,0.154241,2.15088,0.045272\H,-1.827683,1.810768,0.409193\H,-1.31588,
 1.45628,-1.251236\C,1.265419,1.270918,-0.07766\C,0.796924,-0.040659,0.
 562112\H,2.113995,1.731666,0.426516\H,1.519387,1.117304,-1.135292\C,1.

 Normal termination of Gaussian 16 at Fri Jun 10 10:42:08 2022.

 --------------------------------------------------------------------
 #N Geom=AllCheck Guess=TCheck SCRF=Check GenChk RB3LYP/def2TZVP Freq
 --------------------------------------------------------------------

 Structure from the checkpoint file:  "checkpoint.chk"
 -------------
 int_initalOpt
 -------------
 Charge =  0 Multiplicity = 1

                         Standard orientation:
 ---------------------------------------------------------------------
 Center     Atomic      Atomic             Coordinates (Angstroms)
 Number     Number       Type             X           Y           Z
 ---------------------------------------------------------------------
      1          6           0       -2.952204   -1.050909   -0.230307
      2          6           0       -1.502688   -1.087500    0.150856
      3          1           0       -3.284436   -0.052938   -0.516403
      4          1           0       -3.583663   -1.388231    0.597471
      5          1           0       -3.152931   -1.723858   -1.069424
      6          6           0       -0.680506   -0.045227    0.177822
      7          6           0       -1.023578    1.384118   -0.194121
      8          8           0        0.154241    2.150880    0.045272
      9          1           0       -1.827683    1.810768    0.409193
     10          1           0       -1.315880    1.456280   -1.251236
     11          6           0        1.265419    1.270918   -0.077660
     12          6           0        0.796924   -0.040659    0.562112
     13          1           0        2.113995    1.731666    0.426516
     14          1           0        1.519387    1.117304   -1.135292
     15          6           0        1.565342   -1.283205    0.226546
     16          1           0        0.846136    0.097367    1.651896
     17          6           0        2.704270   -1.349497   -0.452445
     18          1           0        1.140396   -2.206131    0.610508
     19          1           0        3.196846   -0.473286   -0.855661
     20          1           0       -1.116201   -2.064923    0.424106
     21          1           0        3.192234   -2.299284   -0.630661
 ---------------------------------------------------------------------

 SCF Done:  E(RB3LYP) =  -387.391422067     A.U. after    1 cycles

 Isotropic polarizability for W=    0.000000       97.37 Bohr**3.
 End of Minotr F.D. properties file   721 does not exist.

                      1                      2                      3
                      A                      A                      A
 Frequencies --     54.0590                78.1562               118.1142
 Red. masses --      2.3757                 2.5013                 1.0270
 Frc consts  --      0.0041                 0.0090                 0.0084
 IR Inten    --      0.1955                 0.1965                 0.2346

                      4                      5                      6
                      A                      A                      A
 Frequencies --    175.6735               185.2095               220.1143
 Red. masses --      2.4660                 2.9691                 2.6754
 Frc consts  --      0.0448                 0.0600                 0.0764
 IR Inten    --      0.3098                 0.2124                 8.1014

                      7                      8                      9
                      A                      A                      A
 Frequencies --    240.3087               324.8764               432.5388
 Red. masses --      2.8749                 2.5004                 2.6859
 Frc consts  --      0.0978                 0.1555                 0.2961
 IR Inten    --      1.2178                 0.5504                 1.0160

                     10                     11                     12
                      A                      A                      A
 Frequencies --    490.9604               526.6557               572.4516
 Red. masses --      2.6346                 2.3825                 2.8531
 Frc consts  --      0.3742                 0.3893                 0.5509
 IR Inten    --      2.8249                 3.5185                 2.0431

                     13                     14                     15
                      A                      A                      A
 Frequencies --    643.9400               694.4726               787.7305
 Red. masses --      4.6629                 2.0106                 2.1772
 Frc consts  --      1.1392                 0.5713                 0.7960
 IR Inten    --      1.0605                13.5630                 7.1284

                     16                     17                     18
                      A                      A                      A
 Frequencies --    855.7199               946.4917               950.6048
 Red. masses --      1.3180                 3.1861                 1.4541
 Frc consts  --      0.5686                 1.6817                 0.7742
 IR Inten    --      7.4407                28.7764                34.2841

                     19                     20                     21
                      A                      A                      A
 Frequencies --    958.5168               984.3998              1005.1501
 Red. masses --      3.3318                 1.6710                 1.6464
 Frc consts  --      1.8036                 0.9540                 0.9801
 IR Inten    --     23.3509                13.3187                 9.9077

                     22                     23                     24
                      A                      A                      A
 Frequencies --   1017.7817              1032.1682              1047.6792
 Red. masses --      1.5653                 1.2647                 1.5767
 Frc consts  --      0.9554                 0.7939                 1.0196
 IR Inten    --      6.3326                 2.3666                13.3549

                     25                     26                     27
                      A                      A                      A
 Frequencies --   1065.5267              1088.3299              1106.8195
 Red. masses --      1.5596                 3.8644                 3.8099
 Frc consts  --      1.0433                 2.6968                 2.7499
 IR Inten    --      1.3320                21.5040                62.8069

                     28                     29                     30
                      A                      A                      A
 Frequencies --   1165.1570              1190.0932              1222.7164
 Red. masses --      2.1284                 2.0607                 1.1712
 Frc consts  --      1.7024                 1.7196                 1.0317
 IR Inten    --      7.2018                 9.1596                 0.6724

                     31                     32                     33
                      A                      A                      A
 Frequencies --   1251.0388              1284.0927              1314.9053
 Red. masses --      1.3778                 1.2305                 1.4135
 Frc consts  --      1.2705                 1.1954                 1.4399
 IR Inten    --      1.6928                 3.4049                 0.1214

                     34                     35                     36
                      A                      A                      A
 Frequencies --   1335.7384              1351.4958              1385.4735
 Red. masses --      1.2405                 1.2452                 1.4345
 Frc consts  --      1.3040                 1.3400                 1.6224
 IR Inten    --      3.0297                 0.7419                 3.7834

                     37                     38                     39
                      A                      A                      A
 Frequencies --   1397.2646              1418.2646              1463.6815
 Red. masses --      1.5023                 1.2747                 1.2032
 Frc consts  --      1.7280                 1.5106                 1.5187
 IR Inten    --      4.6353                 0.7241                 2.0517

                     40                     41                     42
                      A                      A                      A
 Frequencies --   1484.1233              1492.1641              1503.2587
 Red. masses --      1.0436                 1.0588                 1.0820
 Frc consts  --      1.3543                 1.3890                 1.4405
 IR Inten    --      5.4931                 9.9832                 0.1004

                     43                     44                     45
                      A                      A                      A
 Frequencies --   1521.7888              1704.0256              1750.3995
 Red. masses --      1.0947                 4.5420                 7.7714
 Frc consts  --      1.4937                 7.7706                14.0289
 IR Inten    --      1.3631                19.3852                 0.7792

                     46                     47                     48
                      A                      A                      A
 Frequencies --   2964.8474              2967.9931              2983.1517
 Red. masses --      1.0783                 1.0725                 1.0725
 Frc consts  --      5.5845                 5.5665                 5.6236
 IR Inten    --     11.9913                41.6803                61.8969

                     49                     50                     51
                      A                      A                      A
 Frequencies --   3017.5726              3054.6721              3059.2826
 Red. masses --      1.0389                 1.0989                 1.0904
 Frc consts  --      5.5738                 6.0412                 6.0125
 IR Inten    --     35.4640                23.0923                18.3851

                     52                     53                     54
                      A                      A                      A
 Frequencies --   3101.0629              3102.4892              3131.7848
 Red. masses --      1.0936                 1.0965                 1.0823
 Frc consts  --      6.1963                 6.2186                 6.2541
 IR Inten    --     27.9296                11.8096                 5.4348

                     55                     56                     57
                      A                      A                      A
 Frequencies --   3139.6814              3145.1731              3219.5718
 Red. masses --      1.0814                 1.0724                 1.1155
 Frc consts  --      6.2809                 6.2501                 6.8126
 IR Inten    --     25.9590                 9.2196                13.2514

 - Thermochemistry -
 -------------------
 Temperature   298.150 Kelvin.  Pressure   1.00000 Atm.
 Atom     1 has atomic number  6 and mass  12.00000

 Molecular mass:   124.08882 amu.
 Principal axes and moments of inertia in atomic units:
                           1         2         3
     Eigenvalues --   831.714541363.981742066.07210
           X            0.99993   0.01204  -0.00031
           Y           -0.01204   0.99992  -0.00370
           Z            0.00027   0.00371   0.99999
 This molecule is an asymmetric top.
 Rotational symmetry number  1.
 Warning -- assumption of classical behavior for rotation
           may cause significant error
 Rotational temperatures (Kelvin)      0.10414     0.06350     0.04192
 Rotational constants (GHZ):           2.16990     1.32314     0.87351
 Zero-point vibrational energy     476875.8 (Joules/Mol)
                                  113.97606 (Kcal/Mol)
 Warning -- explicit consideration of  12 degrees of freedom as
           vibrations may cause significant error
 Vibrational temperatures:     77.78   112.45   169.94   252.75   266.48
          (Kelvin)            316.70   345.75   467.42   622.33   706.38
                              757.74   823.63   926.49   999.19  1133.37
                             1231.19  1361.79  1367.71  1379.09  1416.33
                             1446.19  1464.36  1485.06  1507.38  1533.06
                             1565.86  1592.47  1676.40  1712.28  1759.22
                             1799.97  1847.52  1891.86  1921.83  1944.50
                             1993.39  2010.35  2040.57  2105.91  2135.32
                             2146.89  2162.85  2189.51  2451.71  2518.43
                             4265.75  4270.28  4292.09  4341.61  4394.99
                             4401.63  4461.74  4463.79  4505.94  4517.30
                             4525.20  4632.25

 Zero-point correction=                           0.181632 (Hartree/Particle)
 Thermal correction to Energy=                    0.191205
 Thermal correction to Enthalpy=                  0.192149
 Thermal correction to Gibbs Free Energy=         0.146494
 Sum of electronic and zero-point Energies=           -387.209790
 Sum of electronic and thermal Energies=              -387.200217
 Sum of electronic and thermal Enthalpies=            -387.199273
 Sum of electronic and thermal Free Energies=         -387.244928

                     E (Thermal)             CV                S
                      KCal/Mol        Cal/Mol-Kelvin    Cal/Mol-Kelvin
 Total                  119.983             34.846             96.090
 Electronic               0.000              0.000              0.000
 Translational            0.889              2.981             40.361
 Rotational               0.889              2.981             29.240
 Vibrational            118.206             28.885             26.489
 Vibration     1          0.596              1.976              4.663
 Vibration     2          0.599              1.964              3.937
 Vibration     3          0.608              1.934              3.131
 Vibration     4          0.628              1.872              2.374
 Vibration     5          0.631              1.860              2.275
 Vibration     6          0.647              1.810              1.958
 Vibration     7          0.657              1.779              1.801
 Vibration     8          0.709              1.626              1.285
 Vibration     9          0.793              1.399              0.850
 Vibration    10          0.847              1.270              0.681
 Vibration    11          0.882              1.191              0.595
 Vibration    12          0.929              1.091              0.500

                           ! Non-Optimized Parameters !

 1\1\GINC-BHC0021\Freq\RB3LYP\def2TZVP\C8H12O1\DHANAWAY\10-Jun-2022\0\\
 #N Geom=AllCheck Guess=TCheck SCRF=Check GenChk RB3LYP/def2TZVP Freq\\
 int_initalOpt\\0,1\C,-2.952204,-1.050909,-0.230307\C,-1.502688,-1.0875
 ,0.150856\H,-3.284436,-0.052938,-0.516403\H,-3.583663,-1.388231,0.5974
 71\H,-3.152931,-1.723858,-1.069424\C,-0.680506,-0.045227,0.177822\C,-1
 .023578,1.384118,-0.194121\O,0.154241,2.15088,0.045272\H,-1.827683,1.8
 10768,0.409193\H,-1.31588,1.45628,-1.251236\C,1.265419,1.270918,-0.077
 66\C,0.796924,-0.040659,0.562112\H,2.113995,1.731666,0.426516\H,1.5193

 Normal termination of Gaussian 16 at Fri Jun 10 10:54:15 2022.
