 Gaussian 16, Revision A.03,
 Gaussian 16:  ES64L-G16RevA.03 25-Dec-2016

 ----------------------------------------------------------------------
 # Opt=(TS, CalcFC, noeigentest, Z-matrix, MaxStep=10) geom=allcheckpoi
 nt guess=read Field=read NoSymm B3LYP/Def2TZVP freq=noraman pop=none
 ----------------------------------------------------------------------

 Structure from the checkpoint file:  "checkpoint.chk"
 -----------------
 ts_zmat_initalOpt
 -----------------
 Charge =  0 Multiplicity = 1

 SCF Done:  E(RB3LYP) =  -210.179159684     A.U. after   10 cycles
 SCF Done:  E(RB3LYP) =  -210.179164608     A.U. after    9 cycles
 Optimization completed.
    -- Stationary point found.
 Normal termination of Gaussian 16 at Fri Jun 10 02:16:10 2022.

 --------------------------------------------------------------------
 #N Geom=AllCheck Guess=TCheck SCRF=Check GenChk RB3LYP/def2TZVP Freq
 --------------------------------------------------------------------

 Structure from the checkpoint file:  "checkpoint.chk"
 -----------------
 ts_zmat_initalOpt
 -----------------
 Charge =  0 Multiplicity = 1

                          Input orientation:
 ---------------------------------------------------------------------
 Center     Atomic      Atomic             Coordinates (Angstroms)
 Number     Number       Type             X           Y           Z
 ---------------------------------------------------------------------
      1          6           0        0.000000    0.000000    0.000000
      2          6           0        0.000000    0.000000    1.392080
      3          6           0        1.339817    0.000000   -0.400885
      4          1           0       -0.857542   -0.002260   -0.653776
      5          6           0        1.328938    0.023690    1.812865
      6          7           0        2.197100   -0.025318    0.777484
      7          1           0        1.771011   -0.237897   -1.361097
      8          1           0       -0.871172    0.016529    2.029346
      9          1           0        2.037071    0.996259    0.038142
     10          1           0        1.702710    0.116533    2.822096
 ---------------------------------------------------------------------

 SCF Done:  E(RB3LYP) =  -210.179164608     A.U. after    1 cycles

 Isotropic polarizability for W=    0.000000       50.47 Bohr**3.
 End of Minotr F.D. properties file   721 does not exist.

 ******    1 imaginary frequencies (negative Signs) ******

                      1                      2                      3
                      A                      A                      A
 Frequencies --  -1490.6525               589.1332               639.2041
 Red. masses --      1.2132                 2.2350                 3.8638
 Frc consts  --      1.5883                 0.4570                 0.9301
 IR Inten    --    103.6289                 2.4342                 3.4951

                      4                      5                      6
                      A                      A                      A
 Frequencies --    753.0698               840.6788               872.4078
 Red. masses --      1.1259                 1.4292                 2.3477
 Frc consts  --      0.3762                 0.5951                 1.0528
 IR Inten    --     92.4461                 5.3258                16.3621

                      7                      8                      9
                      A                      A                      A
 Frequencies --    881.8130               891.1096               941.3618
 Red. masses --      2.0893                 3.4232                 1.7578
 Frc consts  --      0.9572                 1.6016                 0.9178
 IR Inten    --      7.2734                 5.0423                 9.0121

                     10                     11                     12
                      A                      A                      A
 Frequencies --    954.3153              1067.1074              1091.9220
 Red. masses --      2.2427                 1.3739                 1.2432
 Frc consts  --      1.2034                 0.9218                 0.8733
 IR Inten    --     30.7545                10.9020                 1.2089

                     13                     14                     15
                      A                      A                      A
 Frequencies --   1135.5868              1175.4028              1250.6396
 Red. masses --      2.2024                 1.1453                 1.7653
 Frc consts  --      1.6734                 0.9323                 1.6268
 IR Inten    --      2.1942                24.7755                 1.7124

                     16                     17                     18
                      A                      A                      A
 Frequencies --   1312.1764              1431.9010              1483.1625
 Red. masses --      1.8360                 2.8745                 3.1534
 Frc consts  --      1.8626                 3.4725                 4.0871
 IR Inten    --      2.3668                 7.8100                 3.2633

                     19                     20                     21
                      A                      A                      A
 Frequencies --   1511.0365              2181.6059              3208.1078
 Red. masses --      3.5546                 1.0724                 1.0895
 Frc consts  --      4.7818                 3.0072                 6.6068
 IR Inten    --      1.6344                13.8914                 9.0157

                     22                     23                     24
                      A                      A                      A
 Frequencies --   3227.5241              3231.6059              3249.8797
 Red. masses --      1.0935                 1.0943                 1.1041
 Frc consts  --      6.7111                 6.7332                 6.8704
 IR Inten    --      5.1452                 2.1288                 0.4038

 - Thermochemistry -
 -------------------
 Temperature   298.150 Kelvin.  Pressure   1.00000 Atm.
 Atom     1 has atomic number  6 and mass  12.00000

 Molecular mass:    67.04220 amu.
 Principal axes and moments of inertia in atomic units:
                           1         2         3
     Eigenvalues --   196.16440 204.08848 392.62631
           X            0.96755  -0.25244  -0.01062
           Y            0.01209   0.00428   0.99992
           Z            0.25237   0.96760  -0.00720
 This molecule is an asymmetric top.
 Rotational symmetry number  1.
 Rotational temperatures (Kelvin)      0.44154     0.42439     0.22060
 Rotational constants (GHZ):           9.20015     8.84294     4.59659
    1 imaginary frequencies ignored.
 Zero-point vibrational energy     202891.2 (Joules/Mol)
                                   48.49215 (Kcal/Mol)
 Warning -- explicit consideration of   1 degrees of freedom as
           vibrations may cause significant error
 Vibrational temperatures:    847.63   919.67  1083.50  1209.55  1255.20
          (Kelvin)           1268.73  1282.11  1354.41  1373.05  1535.33
                             1571.03  1633.86  1691.14  1799.39  1887.93
                             2060.19  2133.94  2174.04  3138.84  4615.75
                             4643.69  4649.56  4675.85

 Zero-point correction=                           0.077277 (Hartree/Particle)
 Thermal correction to Energy=                    0.080975
 Thermal correction to Enthalpy=                  0.081919
 Thermal correction to Gibbs Free Energy=         0.050992
 Sum of electronic and zero-point Energies=           -210.101887
 Sum of electronic and thermal Energies=              -210.098190
 Sum of electronic and thermal Enthalpies=            -210.097246
 Sum of electronic and thermal Free Energies=         -210.128172

                     E (Thermal)             CV                S
                      KCal/Mol        Cal/Mol-Kelvin    Cal/Mol-Kelvin
 Total                   50.813             13.374             65.091
 Electronic               0.000              0.000              0.000
 Translational            0.889              2.981             38.526
 Rotational               0.889              2.981             24.267
 Vibrational             49.035              7.412              2.298
 Vibration     1          0.946              1.055              0.469

 Optimization completed.
    -- Stationary point found.
 Normal termination of Gaussian 16 at Fri Jun 10 02:17:38 2022.
