 Gaussian 16, Revision A.03,
 Gaussian 16:  ES64L-G16RevA.03 25-Dec-2016

 ------------------------------------------
 # Opt B3LYP/Def2TZVP freq=noraman pop=none
 ------------------------------------------

 -------------
 int_initalOpt
 -------------
 Symbolic Z-matrix:
 Charge =  0 Multiplicity = 1

 SCF Done:  E(RB3LYP) =  -289.055061066     A.U. after   14 cycles
 Optimization completed.
    -- Stationary point found.
 Normal termination of Gaussian 16 at Fri Jun 10 10:31:10 2022.

 --------------------------------------------------------------------
 #N Geom=AllCheck Guess=TCheck SCRF=Check GenChk RB3LYP/def2TZVP Freq
 --------------------------------------------------------------------

 Structure from the checkpoint file:  "checkpoint.chk"
 -------------
 int_initalOpt
 -------------
 Charge =  0 Multiplicity = 1

                         Standard orientation:
 ---------------------------------------------------------------------
 Center     Atomic      Atomic             Coordinates (Angstroms)
 Number     Number       Type             X           Y           Z
 ---------------------------------------------------------------------
      1          6           0        2.106192   -0.019220   -0.010356
      2          6           0        0.823890   -0.668845   -0.485922
      3          1           0        2.061547    0.106500    1.070371
      4          1           0        2.285940    0.948997   -0.479374
      5          1           0        2.948218   -0.666928   -0.259951
      6          7           0       -0.421603    0.001239    0.081462
      7          1           0        0.763147   -1.691341   -0.117702
      8          1           0        0.743962   -0.677917   -1.576313
      9          8           0       -0.371144    0.029447    1.439254
     10          6           0       -1.614059   -0.793748   -0.352720
     11          1           0       -2.489317   -0.311569    0.072686
     12          1           0       -1.507197   -1.786049    0.075166
     13          1           0       -1.685173   -0.843072   -1.441487
     14          6           0       -0.554687    1.397564   -0.447790
     15          1           0        0.285062    1.971776   -0.072332
     16          1           0       -1.474018    1.802245   -0.035132
     17          1           0       -0.579813    1.408598   -1.539469
 ---------------------------------------------------------------------

 SCF Done:  E(RB3LYP) =  -289.055061066     A.U. after    1 cycles

 Isotropic polarizability for W=    0.000000       64.27 Bohr**3.
 End of Minotr F.D. properties file   721 does not exist.

                      1                      2                      3
                      A                      A                      A
 Frequencies --    109.2994               208.2078               241.8476
 Red. masses --      1.8441                 1.0738                 1.1890
 Frc consts  --      0.0130                 0.0274                 0.0410
 IR Inten    --      2.5563                 2.1851                 3.1845

                      4                      5                      6
                      A                      A                      A
 Frequencies --    280.3454               281.0266               367.5459
 Red. masses --      1.3112                 1.6763                 2.6659
 Frc consts  --      0.0607                 0.0780                 0.2122
 IR Inten    --      1.8912                 0.9837                10.2625

                      7                      8                      9
                      A                      A                      A
 Frequencies --    395.3183               438.9565               483.9331
 Red. masses --      2.7556                 2.4954                 3.3325
 Frc consts  --      0.2537                 0.2833                 0.4598
 IR Inten    --      5.3910                 9.0422                11.7134

                     10                     11                     12
                      A                      A                      A
 Frequencies --    540.6736               708.7047               798.8792
 Red. masses --      3.2013                 3.2802                 1.2489
 Frc consts  --      0.5514                 0.9707                 0.4696
 IR Inten    --      7.1822                 0.6017                 1.2721

                     13                     14                     15
                      A                      A                      A
 Frequencies --    887.4895               928.1043               945.9991
 Red. masses --      2.3356                 1.9764                 4.4735
 Frc consts  --      1.0839                 1.0030                 2.3587
 IR Inten    --      3.1143                 1.4348                33.6271

                     16                     17                     18
                      A                      A                      A
 Frequencies --   1006.3463              1074.8275              1114.1131
 Red. masses --      1.8240                 1.4143                 1.6889
 Frc consts  --      1.0884                 0.9627                 1.2351
 IR Inten    --      5.2806                 1.0392                 1.2270

                     19                     20                     21
                      A                      A                      A
 Frequencies --   1133.7262              1206.2341              1232.7645
 Red. masses --      1.4584                 1.8441                 2.1253
 Frc consts  --      1.1044                 1.5809                 1.9030
 IR Inten    --      1.8041                 6.5586                 0.6375

                     22                     23                     24
                      A                      A                      A
 Frequencies --   1259.1815              1328.9252              1383.8538
 Red. masses --      1.9274                 1.2521                 1.2374
 Frc consts  --      1.8005                 1.3028                 1.3962
 IR Inten    --      1.0279                 3.3087                 1.2794

                     25                     26                     27
                      A                      A                      A
 Frequencies --   1404.3869              1415.8953              1446.4588
 Red. masses --      1.2725                 1.1765                 1.2089
 Frc consts  --      1.4787                 1.3896                 1.4902
 IR Inten    --     11.9807                 3.1642                 3.2751

                     28                     29                     30
                      A                      A                      A
 Frequencies --   1461.5022              1477.5662              1481.6520
 Red. masses --      1.0601                 1.0548                 1.0519
 Frc consts  --      1.3342                 1.3568                 1.3606
 IR Inten    --      1.6356                 1.3368                 9.3518

                     31                     32                     33
                      A                      A                      A
 Frequencies --   1486.5126              1494.6147              1507.7544
 Red. masses --      1.0719                 1.0545                 1.0507
 Frc consts  --      1.3955                 1.3879                 1.4073
 IR Inten    --      9.0515                12.6100                15.1457

                     34                     35                     36
                      A                      A                      A
 Frequencies --   1513.0180              3033.5474              3037.7522
 Red. masses --      1.0527                 1.0583                 1.0437
 Frc consts  --      1.4198                 5.7383                 5.6747
 IR Inten    --      0.9787                 4.8137                18.0260

                     37                     38                     39
                      A                      A                      A
 Frequencies --   3045.4105              3051.6849              3096.3493
 Red. masses --      1.0362                 1.0454                 1.1006
 Frc consts  --      5.6620                 5.7358                 6.2170
 IR Inten    --     25.8992                62.7742                 9.9280

                     40                     41                     42
                      A                      A                      A
 Frequencies --   3116.4826              3133.7898              3139.8331
 Red. masses --      1.0982                 1.1019                 1.0937
 Frc consts  --      6.2845                 6.3759                 6.3526
 IR Inten    --     18.0919                 4.3656                 7.3497

                     43                     44                     45
                      A                      A                      A
 Frequencies --   3148.1940              3171.2718              3182.2183
 Red. masses --      1.0939                 1.1064                 1.1049
 Frc consts  --      6.3881                 6.5557                 6.5920
 IR Inten    --     15.0264                 7.4517                 6.4383

 - Thermochemistry -
 -------------------
 Temperature   298.150 Kelvin.  Pressure   1.00000 Atm.
 Atom     1 has atomic number  6 and mass  12.00000

 Molecular mass:    89.08406 amu.
 Principal axes and moments of inertia in atomic units:
                           1         2         3
     Eigenvalues --   366.00970 652.40342 674.36342
           X            0.99969   0.00841   0.02358
           Y           -0.00759   0.99938  -0.03449
           Z           -0.02385   0.03430   0.99913
 This molecule is an asymmetric top.
 Rotational symmetry number  1.
 Rotational temperatures (Kelvin)      0.23664     0.13276     0.12844
 Rotational constants (GHZ):           4.93086     2.76630     2.67621
 Zero-point vibrational energy     401958.4 (Joules/Mol)
                                   96.07037 (Kcal/Mol)
 Warning -- explicit consideration of  10 degrees of freedom as
           vibrations may cause significant error
 Vibrational temperatures:    157.26   299.56   347.96   403.35   404.33
          (Kelvin)            528.82   568.77   631.56   696.27   777.91
                             1019.67  1149.41  1276.90  1335.34  1361.08
                             1447.91  1546.44  1602.96  1631.18  1735.50
                             1773.67  1811.68  1912.03  1991.06  2020.60
                             2037.16  2081.13  2102.78  2125.89  2131.77
                             2138.76  2150.42  2169.32  2176.90  4364.60
                             4370.65  4381.67  4390.69  4454.96  4483.92
                             4508.82  4517.52  4529.55  4562.75  4578.50

 Zero-point correction=                           0.153098 (Hartree/Particle)
 Thermal correction to Energy=                    0.160511
 Thermal correction to Enthalpy=                  0.161455
 Thermal correction to Gibbs Free Energy=         0.122609
 Sum of electronic and zero-point Energies=           -288.901963
 Sum of electronic and thermal Energies=              -288.894550
 Sum of electronic and thermal Enthalpies=            -288.893606
 Sum of electronic and thermal Free Energies=         -288.932452

                     E (Thermal)             CV                S
                      KCal/Mol        Cal/Mol-Kelvin    Cal/Mol-Kelvin
 Total                  100.722             27.498             81.758
 Electronic               0.000              0.000              0.000
 Translational            0.889              2.981             39.373
 Rotational               0.889              2.981             26.579
 Vibrational             98.945             21.536             15.806
 Vibration     1          0.606              1.942              3.281
 Vibration     2          0.642              1.828              2.059
 Vibration     3          0.658              1.776              1.789
 Vibration     4          0.680              1.710              1.532
 Vibration     5          0.681              1.709              1.527
 Vibration     6          0.740              1.539              1.090
 Vibration     7          0.762              1.480              0.980
 Vibration     8          0.799              1.385              0.830
 Vibration     9          0.840              1.286              0.700
 Vibration    10          0.896              1.160              0.564

 Optimization completed.
    -- Stationary point found.
 Normal termination of Gaussian 16 at Fri Jun 10 10:35:26 2022.
