 Gaussian 16, Revision A.03,
 Gaussian 16:  ES64L-G16RevA.03 25-Dec-2016

 ----------------------------------------------------------------------
 # Opt=(Z-matrix, MaxStep=10) B3LYP/Def2TZVP Field=read NoSymm freq=nor
 aman pop=none
 ----------------------------------------------------------------------

 ------------------
 int_zmat_initalOpt
 ------------------
 Symbolic Z-matrix:
 Charge =  0 Multiplicity = 1

 SCF Done:  E(RB3LYP) =  -289.051890077     A.U. after   14 cycles
 SCF Done:  E(RB3LYP) =  -289.051883060     A.U. after   10 cycles
 SCF Done:  E(RB3LYP) =  -289.051912924     A.U. after    9 cycles
 SCF Done:  E(RB3LYP) =  -289.051913750     A.U. after    7 cycles
 Optimization completed.
    -- Stationary point found.
 Normal termination of Gaussian 16 at Fri Jun 10 11:09:37 2022.

 --------------------------------------------------------------------
 #N Geom=AllCheck Guess=TCheck SCRF=Check GenChk RB3LYP/def2TZVP Freq
 --------------------------------------------------------------------

 Structure from the checkpoint file:  "checkpoint.chk"
 ------------------
 int_zmat_initalOpt
 ------------------
 Charge =  0 Multiplicity = 1

                          Input orientation:
 ---------------------------------------------------------------------
 Center     Atomic      Atomic             Coordinates (Angstroms)
 Number     Number       Type             X           Y           Z
 ---------------------------------------------------------------------
      1          7           0        0.000000    0.000000    0.000000
      2          6           0        0.000000    0.000000    1.523019
      3          8           0        1.275520    0.000000   -0.465590
      4          6           0       -0.697000    1.239928   -0.468427
      5          6           0       -0.732207   -1.195492   -0.532186
      6          6           0        0.798120   -1.147176    2.106283
      7          1           0        0.464130    0.949351    1.784167
      8          1           0       -1.037492    0.002731    1.870393
      9          1           0       -0.667260    1.229960   -1.553911
     10          1           0       -0.121380    2.084990   -0.102703
     11          1           0       -1.726887    1.279466   -0.105714
     12          1           0       -0.177786   -2.078938   -0.235521
     13          1           0       -0.715387   -1.115308   -1.614867
     14          1           0       -1.758684   -1.231918   -0.160259
     15          1           0        1.762839   -1.196908    1.603543
     16          1           0        0.289803   -2.107115    2.005492
     17          1           0        0.958243   -0.967721    3.171077
 ---------------------------------------------------------------------

 SCF Done:  E(RB3LYP) =  -289.051913750     A.U. after    1 cycles

 Isotropic polarizability for W=    0.000000       64.50 Bohr**3.
 End of Minotr F.D. properties file   721 does not exist.

                      1                      2                      3
                      A                      A                      A
 Frequencies --    110.2246               206.9448               241.7357
 Red. masses --      1.8392                 1.0722                 1.1796
 Frc consts  --      0.0132                 0.0271                 0.0406
 IR Inten    --      2.4925                 2.1671                 3.0028

                      4                      5                      6
                      A                      A                      A
 Frequencies --    279.3834               280.8126               367.9684
 Red. masses --      1.3172                 1.6911                 2.6668
 Frc consts  --      0.0606                 0.0786                 0.2127
 IR Inten    --      0.2758                 2.5622                10.3832

                      7                      8                      9
                      A                      A                      A
 Frequencies --    394.9666               436.6191               484.1814
 Red. masses --      2.7474                 2.5034                 3.3364
 Frc consts  --      0.2525                 0.2812                 0.4608
 IR Inten    --      5.2383                 9.0825                11.4837

                     10                     11                     12
                      A                      A                      A
 Frequencies --    540.4472               706.8832               798.1341
 Red. masses --      3.2055                 3.2801                 1.2463
 Frc consts  --      0.5516                 0.9657                 0.4678
 IR Inten    --      7.2058                 0.8001                 1.3602

                     13                     14                     15
                      A                      A                      A
 Frequencies --    886.6344               927.0090               945.2706
 Red. masses --      2.3382                 1.9760                 4.5228
 Frc consts  --      1.0830                 1.0005                 2.3811
 IR Inten    --      3.2445                 1.4672                32.2682

                     16                     17                     18
                      A                      A                      A
 Frequencies --   1004.9671              1074.3172              1112.9661
 Red. masses --      1.8077                 1.4150                 1.6976
 Frc consts  --      1.0757                 0.9622                 1.2390
 IR Inten    --      4.7412                 1.0114                 1.2914

                     19                     20                     21
                      A                      A                      A
 Frequencies --   1133.1426              1204.9112              1232.5487
 Red. masses --      1.4591                 1.8283                 2.1277
 Frc consts  --      1.1039                 1.5639                 1.9044
 IR Inten    --      1.8625                 6.4720                 0.5658

                     22                     23                     24
                      A                      A                      A
 Frequencies --   1258.1626              1326.1634              1382.0193
 Red. masses --      1.9211                 1.2620                 1.2343
 Frc consts  --      1.7918                 1.3077                 1.3889
 IR Inten    --      1.4302                 3.7037                 1.6394

                     25                     26                     27
                      A                      A                      A
 Frequencies --   1402.6630              1415.5108              1446.1163
 Red. masses --      1.2805                 1.1735                 1.2078
 Frc consts  --      1.4844                 1.3854                 1.4881
 IR Inten    --     12.8173                 2.6558                 2.9982

                     28                     29                     30
                      A                      A                      A
 Frequencies --   1460.2921              1476.4553              1480.9042
 Red. masses --      1.0592                 1.0564                 1.0523
 Frc consts  --      1.3308                 1.3568                 1.3597
 IR Inten    --      1.3807                 1.3423                 9.2523

                     31                     32                     33
                      A                      A                      A
 Frequencies --   1486.1032              1493.7859              1507.3068
 Red. masses --      1.0723                 1.0546                 1.0502
 Frc consts  --      1.3953                 1.3865                 1.4058
 IR Inten    --      9.0891                12.5048                15.1971

                     34                     35                     36
                      A                      A                      A
 Frequencies --   1513.2231              3025.0917              3033.3080
 Red. masses --      1.0527                 1.0627                 1.0435
 Frc consts  --      1.4202                 5.7298                 5.6570
 IR Inten    --      1.2893                11.6242                17.5424

                     37                     38                     39
                      A                      A                      A
 Frequencies --   3042.4065              3047.5528              3092.5668
 Red. masses --      1.0367                 1.0448                 1.1003
 Frc consts  --      5.6537                 5.7173                 6.2002
 IR Inten    --     30.7745                73.5797                12.6636

                     40                     41                     42
                      A                      A                      A
 Frequencies --   3114.1472              3132.9440              3139.9239
 Red. masses --      1.0970                 1.1015                 1.0918
 Frc consts  --      6.2680                 6.3702                 6.3422
 IR Inten    --     19.8897                 3.6789                 7.8812

                     43                     44                     45
                      A                      A                      A
 Frequencies --   3148.7909              3172.6648              3183.3100
 Red. masses --      1.0920                 1.1065                 1.1053
 Frc consts  --      6.3791                 6.5623                 6.5989
 IR Inten    --     12.2447                 6.0428                 5.4926

 - Thermochemistry -
 -------------------
 Temperature   298.150 Kelvin.  Pressure   1.00000 Atm.
 Atom     1 has atomic number  7 and mass  14.00307

 Molecular mass:    89.08406 amu.
 Principal axes and moments of inertia in atomic units:
                           1         2         3
     Eigenvalues --   365.38637 651.42714 674.41208
           X            0.32835   0.12261   0.93656
           Y           -0.45343   0.89028   0.04242
           Z            0.82860   0.43860  -0.34792
 This molecule is an asymmetric top.
 Rotational symmetry number  1.
 Rotational temperatures (Kelvin)      0.23705     0.13296     0.12843
 Rotational constants (GHZ):           4.93927     2.77044     2.67602
 Zero-point vibrational energy     401655.0 (Joules/Mol)
                                   95.99786 (Kcal/Mol)
 Warning -- explicit consideration of  10 degrees of freedom as
           vibrations may cause significant error
 Vibrational temperatures:    158.59   297.75   347.80   401.97   404.03
          (Kelvin)            529.42   568.27   628.20   696.63   777.58
                             1017.05  1148.34  1275.67  1333.76  1360.03
                             1445.92  1545.70  1601.31  1630.34  1733.60
                             1773.36  1810.22  1908.05  1988.42  2018.12
                             2036.60  2080.64  2101.03  2124.29  2130.69
                             2138.17  2149.22  2168.68  2177.19  4352.43
                             4364.25  4377.34  4384.75  4449.51  4480.56
                             4507.61  4517.65  4530.41  4564.76  4580.07

 Zero-point correction=                           0.152982 (Hartree/Particle)
 Thermal correction to Energy=                    0.160401
 Thermal correction to Enthalpy=                  0.161345
 Thermal correction to Gibbs Free Energy=         0.122493
 Sum of electronic and zero-point Energies=           -288.898931
 Sum of electronic and thermal Energies=              -288.891512
 Sum of electronic and thermal Enthalpies=            -288.890568
 Sum of electronic and thermal Free Energies=         -288.929420

                     E (Thermal)             CV                S
                      KCal/Mol        Cal/Mol-Kelvin    Cal/Mol-Kelvin
 Total                  100.653             27.524             81.771
 Electronic               0.000              0.000              0.000
 Translational            0.889              2.981             39.373
 Rotational               0.889              2.981             26.576
 Vibrational             98.876             21.562             15.822
 Vibration     1          0.606              1.941              3.265
 Vibration     2          0.641              1.830              2.070
 Vibration     3          0.658              1.776              1.790
 Vibration     4          0.680              1.712              1.537
 Vibration     5          0.680              1.709              1.529
 Vibration     6          0.741              1.538              1.088
 Vibration     7          0.762              1.481              0.981
 Vibration     8          0.797              1.390              0.837
 Vibration     9          0.840              1.285              0.699
 Vibration    10          0.896              1.161              0.564

 Optimization completed.
    -- Stationary point found.
 Normal termination of Gaussian 16 at Fri Jun 10 11:13:51 2022.
