 Gaussian 16, Revision A.03,
 Gaussian 16:  ES64L-G16RevA.03 25-Dec-2016

 --------------------------
 # sp B3LYP/Def2TZVP NoSymm
 --------------------------

 ----------------------------------
 int_initalOptXYZ_aligned_AlignedSp
 ----------------------------------
 Symbolic Z-matrix:
 Charge =  0 Multiplicity = 1

                          Input orientation:
 ---------------------------------------------------------------------
 Center     Atomic      Atomic             Coordinates (Angstroms)
 Number     Number       Type             X           Y           Z
 ---------------------------------------------------------------------
      1          6           0       -2.539942    0.430193   -0.041402
      2          6           0       -1.624391    1.559711   -0.050683
      3          6           0       -2.316553   -0.835429   -0.342472
      4          8           0       -2.190686   -1.960581   -0.587808
      5          6           0       -0.278195    1.613422   -0.050441
      6          6           0        0.698067    0.553826    0.057455
      7          6           0        0.679922   -0.724665    0.599177
      8          1           0       -0.160278   -1.196621    1.077289
      9          1           0       -3.591030    0.626946    0.143089
     10          1           0       -2.141108    2.511451   -0.073262
     11          1           0        0.146134    2.609939   -0.132889
     12          6           0        1.978559   -1.272364    0.478979
     13          1           0        2.299231   -2.246222    0.809443
     14          6           0        2.770088   -0.327685   -0.131244
     15          1           0        3.809148   -0.351826   -0.411706
     16          7           0        1.993832    0.770614   -0.370145
     17          1           0        2.299011    1.600735   -0.847084
 ---------------------------------------------------------------------

 SCF Done:  E(RB3LYP) =  -439.153853935     A.U. after   15 cycles

 Alpha  occ. eigenvalues --  -19.19830 -14.36149 -10.29963 -10.20234 -10.19481
 Alpha  occ. eigenvalues --  -10.19328 -10.19086 -10.17933 -10.15786 -10.15722
 Alpha  occ. eigenvalues --   -1.12788  -0.98269  -0.82669  -0.77797  -0.76941
 Alpha  occ. eigenvalues --   -0.71156  -0.62152  -0.59481  -0.57514  -0.54441
 Alpha  occ. eigenvalues --   -0.51928  -0.50766  -0.46470  -0.45926  -0.45741
 Alpha  occ. eigenvalues --   -0.43171  -0.41975  -0.40733  -0.39720  -0.38854
 Alpha  occ. eigenvalues --   -0.36368  -0.32507  -0.25328  -0.25187  -0.19186
 Alpha virt. eigenvalues --   -0.04578  -0.03416   0.02747   0.03968   0.05137
 Alpha virt. eigenvalues --    0.06106   0.07072   0.08264   0.09145   0.09873
 Alpha virt. eigenvalues --    0.11641   0.12120   0.12408   0.15060   0.16411

 Mulliken charges:
               1
     1  C   -0.276348
     2  C   -0.072286
     3  C    0.233558
     4  O   -0.130041
     5  C   -0.248090
     6  C    0.243685
     7  C   -0.200149
     8  H    0.127312
     9  H    0.147938
    10  H    0.109387
    11  H    0.094780
    12  C   -0.164161
    13  H    0.109306
    14  C   -0.063054
    15  H    0.131358
    16  N   -0.255101
    17  H    0.211906
 Sum of Mulliken charges =  -0.00000

 Dipole moment (field-independent basis, Debye):
    X=              0.4784    Y=              2.2828    Z=             -0.5163  Tot=              2.3889
 Quadrupole moment (field-independent basis, Debye-Ang):
   XX=            -47.5296   YY=            -56.2496   ZZ=            -61.8180
   XY=              0.0321   XZ=             -4.0236   YZ=             -3.8325

 Normal termination of Gaussian 16 at Fri Jun 10 02:20:44 2022.
