 Gaussian 16, Revision A.03,
 Gaussian 16:  ES64L-G16RevA.03 25-Dec-2016

 --------------------------
 # sp B3LYP/Def2TZVP NoSymm
 --------------------------

 ----------------------------
 int_initalOpt_zmat_AlignedSp
 ----------------------------
 Symbolic Z-matrix:
 Charge =  0 Multiplicity = 1

                          Input orientation:
 ---------------------------------------------------------------------
 Center     Atomic      Atomic             Coordinates (Angstroms)
 Number     Number       Type             X           Y           Z
 ---------------------------------------------------------------------
      1          6           0        0.000000    0.000000    0.000000
      2          6           0        0.000000    0.000000    1.454005
      3          6           0        1.017718    0.000000   -0.840592
      4          1           0       -0.951356    0.110342   -0.510178
      5          8           0        1.861972   -0.003991   -1.633825
      6          6           0        0.963221   -0.310355    2.343394
      7          1           0       -0.948265    0.320331    1.868128
      8          6           0        2.290594   -0.841237    2.134305
      9          1           0        0.702013   -0.148387    3.385237
     10          6           0        2.883659   -1.589855    1.126249
     11          7           0        3.247175   -0.701476    3.121354
     12          1           0        2.402398   -1.933266    0.227513
     13          6           0        4.209994   -1.885240    1.519265
     14          6           0        4.410479   -1.316885    2.755424
     15          1           0        3.116790   -0.165768    3.961426
     16          1           0        4.933877   -2.456641    0.962551
     17          1           0        5.277931   -1.300941    3.392731
 ---------------------------------------------------------------------

 SCF Done:  E(RB3LYP) =  -439.153854565     A.U. after   15 cycles

 Alpha  occ. eigenvalues --  -19.19830 -14.36149 -10.29963 -10.20234 -10.19481
 Alpha  occ. eigenvalues --  -10.19328 -10.19086 -10.17933 -10.15786 -10.15722
 Alpha  occ. eigenvalues --   -1.12788  -0.98269  -0.82669  -0.77797  -0.76941
 Alpha  occ. eigenvalues --   -0.71156  -0.62152  -0.59481  -0.57514  -0.54441
 Alpha  occ. eigenvalues --   -0.51928  -0.50766  -0.46470  -0.45926  -0.45741
 Alpha  occ. eigenvalues --   -0.43171  -0.41975  -0.40733  -0.39720  -0.38854
 Alpha  occ. eigenvalues --   -0.36368  -0.32507  -0.25328  -0.25187  -0.19186
 Alpha virt. eigenvalues --   -0.04578  -0.03416   0.02747   0.03967   0.05137
 Alpha virt. eigenvalues --    0.06106   0.07072   0.08264   0.09145   0.09873
 Alpha virt. eigenvalues --    0.11641   0.12120   0.12408   0.15060   0.16411

 Mulliken charges:
               1
     1  C   -0.276355
     2  C   -0.072255
     3  C    0.233576
     4  H    0.147940
     5  O   -0.130044
     6  C   -0.248172
     7  H    0.109388
     8  C    0.243686
     9  H    0.094777
    10  C   -0.200134
    11  N   -0.255075
    12  H    0.127305
    13  C   -0.164137
    14  C   -0.063069
    15  H    0.211907
    16  H    0.109308
    17  H    0.131355
 Sum of Mulliken charges =  -0.00000

 Dipole moment (field-independent basis, Debye):
    X=             -0.8649    Y=              0.8006    Z=              2.0779  Tot=              2.3889
 Quadrupole moment (field-independent basis, Debye-Ang):
   XX=            -55.2864   YY=            -62.4535   ZZ=            -47.4340
   XY=             -0.2336   XZ=              9.0416   YZ=              3.4224

 Normal termination of Gaussian 16 at Fri Jun 10 02:29:44 2022.
