 Gaussian 16, Revision A.03,
 Gaussian 16:  ES64L-G16RevA.03 25-Dec-2016

 --------------------------
 # sp B3LYP/Def2TZVP NoSymm
 --------------------------

 ---------------------------
 ts_initalOpt_zmat_AlignedSp
 ---------------------------
 Symbolic Z-matrix:
 Charge =  0 Multiplicity = 1

                          Input orientation:
 ---------------------------------------------------------------------
 Center     Atomic      Atomic             Coordinates (Angstroms)
 Number     Number       Type             X           Y           Z
 ---------------------------------------------------------------------
      1          6           0        0.000000    0.000000    0.000000
      2          6           0        0.000000    0.000000    1.415903
      3          6           0        1.088431    0.000000   -0.841780
      4          1           0       -0.928519    0.229749   -0.513277
      5          8           0        1.431425   -0.010784   -1.970214
      6          6           0        1.085135    0.034394    2.250115
      7          1           0       -0.980606    0.062457    1.874218
      8          6           0        2.373803    0.054749    1.662697
      9          1           0        0.953316    0.188995    3.312509
     10          6           0        2.702325   -0.472760    0.390786
     11          7           0        3.461350    0.744576    2.103268
     12          1           0        2.323623   -1.441533    0.088152
     13          6           0        4.052831   -0.050077    0.103291
     14          6           0        4.477258    0.695659    1.153961
     15          1           0        3.459663    1.349061    2.907380
     16          1           0        4.626471   -0.293533   -0.774905
     17          1           0        5.411445    1.203012    1.325962
 ---------------------------------------------------------------------

 SCF Done:  E(RB3LYP) =  -439.135083747     A.U. after   15 cycles

 Alpha  occ. eigenvalues --  -19.14303 -14.37915 -10.27785 -10.22925 -10.21405
 Alpha  occ. eigenvalues --  -10.19272 -10.18027 -10.17577 -10.17044 -10.16967
 Alpha  occ. eigenvalues --   -1.07474  -1.00024  -0.83057  -0.79474  -0.75550
 Alpha  occ. eigenvalues --   -0.71101  -0.61853  -0.61368  -0.59807  -0.53842
 Alpha  occ. eigenvalues --   -0.49970  -0.48997  -0.46576  -0.45690  -0.44302
 Alpha  occ. eigenvalues --   -0.43481  -0.41931  -0.40199  -0.39193  -0.38068
 Alpha  occ. eigenvalues --   -0.36778  -0.32321  -0.26700  -0.24716  -0.19268
 Alpha virt. eigenvalues --   -0.05933  -0.02090   0.01907   0.02972   0.05557
 Alpha virt. eigenvalues --    0.06039   0.07350   0.08365   0.09108   0.10872
 Alpha virt. eigenvalues --    0.11328   0.12275   0.12996   0.14630   0.15828

 Mulliken charges:
               1
     1  C   -0.267610
     2  C   -0.018895
     3  C    0.205966
     4  H    0.113586
     5  O   -0.208293
     6  C   -0.281785
     7  H    0.112566
     8  C    0.249173
     9  H    0.105738
    10  C   -0.190269
    11  N   -0.245944
    12  H    0.134679
    13  C   -0.153282
    14  C   -0.039461
    15  H    0.218932
    16  H    0.125797
    17  H    0.139101
 Sum of Mulliken charges =  -0.00000

 Dipole moment (field-independent basis, Debye):
    X=              1.3929    Y=              1.1943    Z=              3.6817  Tot=              4.1136
 Quadrupole moment (field-independent basis, Debye-Ang):
   XX=            -45.3597   YY=            -58.1032   ZZ=            -55.0961
   XY=              4.8381   XZ=              9.0077   YZ=              5.7740

 Normal termination of Gaussian 16 at Fri Jun 10 02:33:09 2022.
