 Gaussian 16, Revision A.03,
 Gaussian 16:  ES64L-G16RevA.03 25-Dec-2016

 ----------------------------------------------------------------------
 # Opt=(Z-matrix, MaxStep=10) B3LYP/Def2TZVP geom=allcheckpoint guess=r
 ead Field=read NoSymm freq=noraman pop=none
 ----------------------------------------------------------------------

 Structure from the checkpoint file:  "checkpoint.chk"
 ------------------
 int_zmat_initalOpt
 ------------------
 Charge =  0 Multiplicity = 1

 SCF Done:  E(RB3LYP) =  -669.477911655     A.U. after   10 cycles
 SCF Done:  E(RB3LYP) =  -669.477962637     A.U. after   10 cycles
 SCF Done:  E(RB3LYP) =  -669.477980441     A.U. after   11 cycles
 SCF Done:  E(RB3LYP) =  -669.477961011     A.U. after   12 cycles
 SCF Done:  E(RB3LYP) =  -669.477994574     A.U. after   11 cycles
 SCF Done:  E(RB3LYP) =  -669.477998217     A.U. after   10 cycles
 SCF Done:  E(RB3LYP) =  -669.477961857     A.U. after   13 cycles
 SCF Done:  E(RB3LYP) =  -669.478004076     A.U. after   12 cycles
 SCF Done:  E(RB3LYP) =  -669.478008026     A.U. after   11 cycles
 SCF Done:  E(RB3LYP) =  -669.478012281     A.U. after   13 cycles
 SCF Done:  E(RB3LYP) =  -669.478029935     A.U. after   12 cycles
 SCF Done:  E(RB3LYP) =  -669.478031131     A.U. after   10 cycles
 SCF Done:  E(RB3LYP) =  -669.478031505     A.U. after   11 cycles
 SCF Done:  E(RB3LYP) =  -669.478032372     A.U. after   11 cycles
 SCF Done:  E(RB3LYP) =  -669.478032868     A.U. after   10 cycles
 SCF Done:  E(RB3LYP) =  -669.478033438     A.U. after   10 cycles
 SCF Done:  E(RB3LYP) =  -669.478033667     A.U. after   10 cycles
 SCF Done:  E(RB3LYP) =  -669.478033730     A.U. after   10 cycles
 SCF Done:  E(RB3LYP) =  -669.478033850     A.U. after   10 cycles
 Optimization completed.
    -- Stationary point found.
 Normal termination of Gaussian 16 at Fri Jun 10 10:43:24 2022.

 --------------------------------------------------------------------
 #N Geom=AllCheck Guess=TCheck SCRF=Check GenChk RB3LYP/def2TZVP Freq
 --------------------------------------------------------------------

 Structure from the checkpoint file:  "checkpoint.chk"
 ------------------
 int_zmat_initalOpt
 ------------------
 Charge =  0 Multiplicity = 1

                          Input orientation:
 ---------------------------------------------------------------------
 Center     Atomic      Atomic             Coordinates (Angstroms)
 Number     Number       Type             X           Y           Z
 ---------------------------------------------------------------------
      1          6           0        0.000000    0.000000    0.000000
      2          6           0        0.000000    0.000000    1.509120
      3          6           0        1.211266    0.000000   -0.553553
      4          1           0       -0.926266    0.031506   -0.561361
      5          6           0        2.343240   -0.054740    0.438236
      6          6           0        0.763031   -1.294300    1.959475
      7          1           0       -1.000350    0.004418    1.933342
      8          6           0        0.824323    1.221862    1.994641
      9          1           0        1.385165    0.022549   -1.623473
     10          6           0        2.153701   -1.316502    1.319270
     11          1           0        3.318747   -0.087100   -0.047212
     12          6           0        2.234671    1.187565    1.358607
     13          1           0        0.879978    1.221394    3.083221
     14          1           0        0.288920    2.128598    1.711079
     15          7           0       -0.179316   -2.433484    1.531936
     16          6           0        0.816373   -1.481531    3.491279
     17          1           0        2.916524   -1.359073    2.094350
     18          1           0        2.254491   -2.219676    0.716001
     19          1           0        3.006830    1.132105    2.127461
     20          1           0        2.423404    2.094789    0.783615
     21          8           0        0.271720   -3.228447    0.764531
     22          8           0        1.739641   -2.010983    4.048637
     23          8           0       -0.283421   -1.035186    4.099796
     24          6           0       -0.315555   -1.195574    5.540484
     25          1           0       -1.261330   -0.767493    5.857030
     26          1           0       -0.257625   -2.250788    5.799965
     27          1           0        0.518821   -0.665897    5.995406
 ---------------------------------------------------------------------

 SCF Done:  E(RB3LYP) =  -669.478033850     A.U. after    1 cycles

 Isotropic polarizability for W=    0.000000      124.79 Bohr**3.
 End of Minotr F.D. properties file   721 does not exist.

                      1                      2                      3
                      A                      A                      A
 Frequencies --     23.0791                53.0986                79.6934
 Red. masses --      7.2706                 6.8484                 3.7936
 Frc consts  --      0.0023                 0.0114                 0.0142
 IR Inten    --      1.3648                 0.5732                 0.2413

                      4                      5                      6
                      A                      A                      A
 Frequencies --    120.6399               133.3481               163.6850
 Red. masses --      2.6594                 1.2310                 3.6140
 Frc consts  --      0.0228                 0.0129                 0.0570
 IR Inten    --      1.3010                 0.1699                 2.1420

                      7                      8                      9
                      A                      A                      A
 Frequencies --    222.8462               232.4086               271.6204
 Red. masses --      5.0182                 2.0680                 5.6481
 Frc consts  --      0.1468                 0.0658                 0.2455
 IR Inten    --      2.2120                 0.5368                 6.6200

                     10                     11                     12
                      A                      A                      A
 Frequencies --    318.3221               332.8221               354.3575
 Red. masses --      4.2174                 5.8084                 3.8424
 Frc consts  --      0.2518                 0.3791                 0.2843
 IR Inten    --      9.7131                 7.6777                 1.6320

                     13                     14                     15
                      A                      A                      A
 Frequencies --    375.5057               396.6556               459.3361
 Red. masses --      3.3499                 2.0785                 4.0590
 Frc consts  --      0.2783                 0.1927                 0.5046
 IR Inten    --      2.0714                 3.1379                 4.1686

                     16                     17                     18
                      A                      A                      A
 Frequencies --    474.0606               593.3847               628.0400
 Red. masses --      4.8342                 5.0660                 4.8663
 Frc consts  --      0.6401                 1.0510                 1.1309
 IR Inten    --      4.6864                 7.3784                11.3775

                     19                     20                     21
                      A                      A                      A
 Frequencies --    647.0600               676.1873               716.8857
 Red. masses --      5.2025                 3.0602                 2.7770
 Frc consts  --      1.2834                 0.8244                 0.8409
 IR Inten    --      1.1344                 1.4659                49.4451

                     22                     23                     24
                      A                      A                      A
 Frequencies --    729.0634               778.2932               827.0333
 Red. masses --      2.8823                 3.7809                 2.5342
 Frc consts  --      0.9027                 1.3494                 1.0213
 IR Inten    --     13.7018                10.5185                 9.7422

                     25                     26                     27
                      A                      A                      A
 Frequencies --    828.1268               842.2234               876.3164
 Red. masses --      1.9946                 3.0986                 2.6215
 Frc consts  --      0.8059                 1.2950                 1.1861
 IR Inten    --      3.0319                30.9882                 9.9460

                     28                     29                     30
                      A                      A                      A
 Frequencies --    906.1813               947.0128               955.5272
 Red. masses --      3.4244                 2.3841                 1.5521
 Frc consts  --      1.6568                 1.2597                 0.8350
 IR Inten    --     22.4091                10.6206                 3.4799

                     31                     32                     33
                      A                      A                      A
 Frequencies --    969.1264               974.1559               991.3723
 Red. masses --      2.5544                 3.0645                 2.5465
 Frc consts  --      1.4135                 1.7134                 1.4746
 IR Inten    --      3.7944                 5.0221                 0.7302

                     34                     35                     36
                      A                      A                      A
 Frequencies --   1019.8555              1034.9889              1064.0746
 Red. masses --      2.5334                 4.4364                 3.0826
 Frc consts  --      1.5525                 2.8000                 2.0564
 IR Inten    --      1.3962                 8.5478                 0.7197

                     37                     38                     39
                      A                      A                      A
 Frequencies --   1106.1898              1109.4856              1145.0230
 Red. masses --      1.8824                 2.0488                 1.1212
 Frc consts  --      1.3571                 1.4859                 0.8661
 IR Inten    --     16.8419                36.5445                 4.4273

                     40                     41                     42
                      A                      A                      A
 Frequencies --   1169.0979              1194.9561              1199.0896
 Red. masses --      1.2762                 1.5361                 1.2175
 Frc consts  --      1.0277                 1.2923                 1.0314
 IR Inten    --      1.7821                77.9594                23.8764

                     43                     44                     45
                      A                      A                      A
 Frequencies --   1213.6038              1243.2990              1254.4681
 Red. masses --      1.6280                 1.2370                 1.8216
 Frc consts  --      1.4127                 1.1266                 1.6890
 IR Inten    --     48.3437                 6.0569               152.3021

                     46                     47                     48
                      A                      A                      A
 Frequencies --   1268.1329              1282.2851              1310.4073
 Red. masses --      1.6491                 1.6130                 1.4315
 Frc consts  --      1.5625                 1.5626                 1.4483
 IR Inten    --     79.9867                27.9696                20.2857

                     49                     50                     51
                      A                      A                      A
 Frequencies --   1335.1694              1342.0385              1368.2609
 Red. masses --      1.3222                 1.4305                 1.3966
 Frc consts  --      1.3888                 1.5180                 1.5405
 IR Inten    --      2.1555                 2.3190                 0.0836

                     52                     53                     54
                      A                      A                      A
 Frequencies --   1377.7254              1401.1484              1473.0343
 Red. masses --      1.5869                 1.6841                 1.1908
 Frc consts  --      1.7747                 1.9480                 1.5223
 IR Inten    --      1.4285                 6.4944                12.6805

                     55                     56                     57
                      A                      A                      A
 Frequencies --   1484.9061              1493.8446              1494.1121
 Red. masses --      1.0451                 1.0485                 1.0746
 Frc consts  --      1.3577                 1.3786                 1.4134
 IR Inten    --     11.1972                 8.6472                 4.1063

                     58                     59                     60
                      A                      A                      A
 Frequencies --   1500.9563              1515.7483              1651.7507
 Red. masses --      1.0804                 1.0927                13.6427
 Frc consts  --      1.4341                 1.4791                21.9300
 IR Inten    --     10.5735                 5.1486               148.1797

                     61                     62                     63
                      A                      A                      A
 Frequencies --   1674.5014              1791.6787              3050.9748
 Red. masses --      5.8417                11.7845                 1.0608
 Frc consts  --      9.6508                22.2886                 5.8181
 IR Inten    --     10.9041               209.1513                15.5996

                     64                     65                     66
                      A                      A                      A
 Frequencies --   3062.3647              3066.4721              3068.3017
 Red. masses --      1.0635                 1.0655                 1.0289
 Frc consts  --      5.8765                 5.9033                 5.7071
 IR Inten    --     26.6752                 5.5319                18.2492

                     67                     68                     69
                      A                      A                      A
 Frequencies --   3078.6993              3082.8484              3103.9060
 Red. masses --      1.0834                 1.1043                 1.1049
 Frc consts  --      6.0503                 6.1835                 6.2719
 IR Inten    --     46.9309                 4.0952                27.3642

                     70                     71                     72
                      A                      A                      A
 Frequencies --   3117.8579              3123.0074              3147.1406
 Red. masses --      1.0990                 1.0865                 1.1079
 Frc consts  --      6.2944                 6.2435                 6.4653
 IR Inten    --      0.9743                 6.5485                 7.2017

                     73                     74                     75
                      A                      A                      A
 Frequencies --   3148.0998              3173.7160              3174.9350
 Red. masses --      1.0850                 1.1007                 1.1079
 Frc consts  --      6.3354                 6.5323                 6.5798
 IR Inten    --     20.8854                47.6286                 7.8260

 - Thermochemistry -
 -------------------
 Temperature   298.150 Kelvin.  Pressure   1.00000 Atm.
 Atom     1 has atomic number  6 and mass  12.00000

 Molecular mass:   195.08954 amu.
 Principal axes and moments of inertia in atomic units:
                           1         2         3
     Eigenvalues --  1623.852992872.926963382.20715
           X           -0.23946   0.22233   0.94511
           Y           -0.34061   0.89233  -0.29621
           Z            0.90920   0.39284   0.13795
 This molecule is an asymmetric top.
 Rotational symmetry number  1.
 Warning -- assumption of classical behavior for rotation
           may cause significant error
 Rotational temperatures (Kelvin)      0.05334     0.03015     0.02561
 Rotational constants (GHZ):           1.11139     0.62819     0.53360
 Zero-point vibrational energy     579086.0 (Joules/Mol)
                                  138.40488 (Kcal/Mol)
 Warning -- explicit consideration of  17 degrees of freedom as
           vibrations may cause significant error
 Vibrational temperatures:     33.21    76.40   114.66   173.57   191.86
          (Kelvin)            235.51   320.63   334.38   390.80   457.99
                              478.86   509.84   540.27   570.70   660.88
                              682.07   853.75   903.61   930.97   972.88
                             1031.44  1048.96  1119.79  1189.92  1191.49
                             1211.77  1260.82  1303.79  1362.54  1374.79
                             1394.36  1401.59  1426.36  1467.34  1489.12
                             1530.97  1591.56  1596.30  1647.43  1682.07
                             1719.28  1725.22  1746.11  1788.83  1804.90
                             1824.56  1844.92  1885.38  1921.01  1930.89
                             1968.62  1982.24  2015.94  2119.37  2136.45
                             2149.31  2149.69  2159.54  2180.82  2376.50
                             2409.23  2577.83  4389.67  4406.06  4411.97
                             4414.60  4429.56  4435.53  4465.83  4485.90
                             4493.31  4528.03  4529.41  4566.27  4568.02

 Zero-point correction=                           0.220562 (Hartree/Particle)
 Thermal correction to Energy=                    0.233420
 Thermal correction to Enthalpy=                  0.234364
 Thermal correction to Gibbs Free Energy=         0.180404
 Sum of electronic and zero-point Energies=           -669.257472
 Sum of electronic and thermal Energies=              -669.244614
 Sum of electronic and thermal Enthalpies=            -669.243670
 Sum of electronic and thermal Free Energies=         -669.297630

                     E (Thermal)             CV                S
                      KCal/Mol        Cal/Mol-Kelvin    Cal/Mol-Kelvin
 Total                  146.473             49.010            113.568
 Electronic               0.000              0.000              0.000
 Translational            0.889              2.981             41.710
 Rotational               0.889              2.981             31.135
 Vibrational            144.695             43.049             40.723
 Vibration     1          0.593              1.985              6.350
 Vibration     2          0.596              1.976              4.699
 Vibration     3          0.600              1.963              3.898
 Vibration     4          0.609              1.932              3.090
 Vibration     5          0.613              1.920              2.897
 Vibration     6          0.623              1.887              2.507
 Vibration     7          0.649              1.806              1.936
 Vibration     8          0.653              1.791              1.860
 Vibration     9          0.675              1.726              1.586
 Vibration    10          0.705              1.639              1.319
 Vibration    11          0.715              1.610              1.246
 Vibration    12          0.730              1.566              1.147
 Vibration    13          0.746              1.522              1.057
 Vibration    14          0.763              1.477              0.975
 Vibration    15          0.817              1.340              0.768
 Vibration    16          0.831              1.308              0.726
 Vibration    17          0.951              1.046              0.461

 Optimization completed.
    -- Stationary point found.
 Normal termination of Gaussian 16 at Fri Jun 10 11:25:16 2022.
