 Gaussian 16, Revision A.03,
 Gaussian 16:  ES64L-G16RevA.03 25-Dec-2016

 --------------------------
 # sp B3LYP/Def2TZVP NoSymm
 --------------------------

 ----------------------------
 int_initalOpt_zmat_AlignedSp
 ----------------------------
 Symbolic Z-matrix:
 Charge =  0 Multiplicity = 1

                          Input orientation:
 ---------------------------------------------------------------------
 Center     Atomic      Atomic             Coordinates (Angstroms)
 Number     Number       Type             X           Y           Z
 ---------------------------------------------------------------------
      1          6           0        0.000000    0.000000    0.000000
      2          6           0        0.000000    0.000000    1.507589
      3          6           0        1.212320    0.000000   -0.550032
      4          1           0       -0.925127    0.004174   -0.561556
      5          6           0        2.343225   -0.014340    0.445082
      6          6           0        0.797773   -1.262328    1.986389
      7          1           0       -1.001997   -0.019227    1.928125
      8          6           0        0.790660    1.248065    1.982827
      9          1           0        1.389081    0.006840   -1.618332
     10          6           0        2.185753   -1.263943    1.348670
     11          1           0        3.318801   -0.030325   -0.040609
     12          6           0        2.202475    1.239710    1.345389
     13          1           0        0.851083    1.261906    3.073195
     14          1           0        0.232927    2.137462    1.687970
     15          7           0       -0.116525   -2.456953    1.581008
     16          6           0        0.832417   -1.356549    3.516230
     17          1           0        2.949596   -1.273361    2.124647
     18          1           0        2.303693   -2.173773    0.758358
     19          1           0        2.975479    1.216820    2.116479
     20          1           0        2.364856    2.140731    0.752746
     21          8           0        0.381589   -3.257710    0.859378
     22          8           0        1.826221   -1.536072    4.172528
     23          8           0       -0.393827   -1.236017    4.044672
     24          6           0       -0.482454   -1.367800    5.473836
     25          1           0       -1.537632   -1.263554    5.709628
     26          1           0       -0.112800   -2.342871    5.788174
     27          1           0        0.100341   -0.589449    5.964958
 ---------------------------------------------------------------------

 SCF Done:  E(RB3LYP) =  -669.471112140     A.U. after   17 cycles

 Alpha  occ. eigenvalues --  -19.20250 -19.18603 -19.12770 -14.44206 -10.31355
 Alpha  occ. eigenvalues --  -10.23551 -10.22849 -10.19840 -10.18576 -10.18075
 Alpha  occ. eigenvalues --  -10.17487 -10.17356 -10.17257 -10.17163  -1.18551
 Alpha  occ. eigenvalues --   -1.12311  -1.03483  -0.88918  -0.80978  -0.76395
 Alpha  occ. eigenvalues --   -0.75494  -0.73822  -0.69138  -0.62364  -0.61463
 Alpha  occ. eigenvalues --   -0.60308  -0.56869  -0.54110  -0.53647  -0.51503
 Alpha  occ. eigenvalues --   -0.49246  -0.48983  -0.48375  -0.46921  -0.46014
 Alpha  occ. eigenvalues --   -0.45091  -0.43442  -0.42334  -0.41080  -0.40218
 Alpha  occ. eigenvalues --   -0.39751  -0.39169  -0.38243  -0.37246  -0.36912
 Alpha  occ. eigenvalues --   -0.33180  -0.32307  -0.31930  -0.31234  -0.29608
 Alpha  occ. eigenvalues --   -0.26076  -0.23487
 Alpha virt. eigenvalues --   -0.09681  -0.01617   0.00430   0.02535   0.04373
 Alpha virt. eigenvalues --    0.06167   0.06274   0.06621   0.07925   0.08640
 Alpha virt. eigenvalues --    0.09168   0.09909   0.10638   0.11138   0.11462

 Mulliken charges:
               1
     1  C   -0.244386
     2  C    0.079140
     3  C   -0.171452
     4  H    0.102280
     5  C    0.093170
     6  C    0.231124
     7  H    0.094128
     8  C   -0.234838
     9  H    0.103587
    10  C   -0.273403
    11  H    0.073050
    12  C   -0.178006
    13  H    0.098867
    14  H    0.094799
    15  N    0.055882
    16  C    0.201471
    17  H    0.130527
    18  H    0.115390
    19  H    0.088947
    20  H    0.089868
    21  O   -0.196782
    22  O   -0.307262
    23  O   -0.252363
    24  C   -0.183427
    25  H    0.130784
    26  H    0.131908
    27  H    0.126995
 Sum of Mulliken charges =  -0.00000

 Dipole moment (field-independent basis, Debye):
    X=             -0.6906    Y=              2.2986    Z=              0.5798  Tot=              2.4692
 Quadrupole moment (field-independent basis, Debye-Ang):
   XX=            -84.0181   YY=            -90.1938   ZZ=            -74.0537
   XY=              2.0844   XZ=             -8.5290   YZ=              1.8430

 Normal termination of Gaussian 16 at Fri Jun 10 03:49:15 2022.
