 Gaussian 16, Revision A.03,
 Gaussian 16:  ES64L-G16RevA.03 25-Dec-2016

 ----------------------------------------------------------------------
 # Opt=(TS, CalcFC, noeigentest, Z-matrix, MaxStep=10) geom=allcheckpoi
 nt guess=read Field=read NoSymm B3LYP/Def2TZVP freq=noraman pop=none
 ----------------------------------------------------------------------

 Structure from the checkpoint file:  "checkpoint.chk"
 -----------------
 ts_zmat_initalOpt
 -----------------
 Charge =  0 Multiplicity = 1

 SCF Done:  E(RB3LYP) =  -269.394204135     A.U. after   11 cycles
 SCF Done:  E(RB3LYP) =  -269.394227222     A.U. after   12 cycles
 Optimization completed.
    -- Stationary point found.
 Normal termination of Gaussian 16 at Fri Jun 10 03:16:35 2022.

 --------------------------------------------------------------------
 #N Geom=AllCheck Guess=TCheck SCRF=Check GenChk RB3LYP/def2TZVP Freq
 --------------------------------------------------------------------

 Structure from the checkpoint file:  "checkpoint.chk"
 -----------------
 ts_zmat_initalOpt
 -----------------
 Charge =  0 Multiplicity = 1

                          Input orientation:
 ---------------------------------------------------------------------
 Center     Atomic      Atomic             Coordinates (Angstroms)
 Number     Number       Type             X           Y           Z
 ---------------------------------------------------------------------
      1          1           0        0.000000    0.000000    0.000000
      2          6           0        0.000000    0.000000    1.082622
      3          6           0        1.193405    0.000000    1.785765
      4          6           0       -1.174955    0.190510    1.806915
      5          1           0        2.113858   -0.289276    1.288692
      6          6           0        1.286470    0.604026    3.049002
      7          1           0       -2.091704    0.471877    1.304096
      8          1           0       -1.305516   -0.359944    2.728580
      9          1           0        2.248725    0.655964    3.540487
     10          6           0        0.346720    1.589166    3.406102
     11          1           0        0.737186    2.426285    3.997963
     12          8           0       -0.845578    1.709028    3.011078
 ---------------------------------------------------------------------

 SCF Done:  E(RB3LYP) =  -269.394227222     A.U. after    1 cycles

 Isotropic polarizability for W=    0.000000       65.31 Bohr**3.
 End of Minotr F.D. properties file   721 does not exist.

 ******    1 imaginary frequencies (negative Signs) ******

                      1                      2                      3
                      A                      A                      A
 Frequencies --   -515.9715               231.6303               376.5908
 Red. masses --      5.5991                 2.8755                 2.5702
 Frc consts  --      0.8782                 0.0909                 0.2148
 IR Inten    --     46.0086                 4.4120                10.1781

                      4                      5                      6
                      A                      A                      A
 Frequencies --    419.8499               573.7156               589.9091
 Red. masses --      4.4283                 2.6701                 3.8710
 Frc consts  --      0.4599                 0.5178                 0.7937
 IR Inten    --      4.7254                24.6281                 2.6650

                      7                      8                      9
                      A                      A                      A
 Frequencies --    730.7906               789.9495               887.9692
 Red. masses --      1.2395                 1.3842                 2.0916
 Frc consts  --      0.3900                 0.5089                 0.9717
 IR Inten    --     46.8794                25.7249                26.4023

                     10                     11                     12
                      A                      A                      A
 Frequencies --    957.6168               963.0017               979.5709
 Red. masses --      1.6084                 1.4591                 1.4117
 Frc consts  --      0.8690                 0.7973                 0.7981
 IR Inten    --     44.1221                 5.3553                 6.0168

                     13                     14                     15
                      A                      A                      A
 Frequencies --   1016.1236              1043.9212              1097.8302
 Red. masses --      3.5579                 1.7448                 1.3264
 Frc consts  --      2.1644                 1.1203                 0.9419
 IR Inten    --     16.3181                 4.9789                16.1143

                     16                     17                     18
                      A                      A                      A
 Frequencies --   1117.3748              1182.9361              1248.2574
 Red. masses --      1.5669                 1.2319                 1.3478
 Frc consts  --      1.1526                 1.0157                 1.2373
 IR Inten    --      1.0165                13.9482                 3.2032

                     19                     20                     21
                      A                      A                      A
 Frequencies --   1346.9178              1406.2807              1440.5424
 Red. masses --      1.3642                 1.8862                 1.8035
 Frc consts  --      1.4582                 2.1978                 2.2051
 IR Inten    --     42.7534                57.5793                59.8613

                     22                     23                     24
                      A                      A                      A
 Frequencies --   1496.6232              1552.2483              1617.3401
 Red. masses --      1.7487                 2.2161                 5.5961
 Frc consts  --      2.3077                 3.1460                 8.6246
 IR Inten    --      4.7045                20.8243               122.4590

                     25                     26                     27
                      A                      A                      A
 Frequencies --   3022.7621              3136.0209              3152.6452
 Red. masses --      1.0851                 1.0576                 1.0877
 Frc consts  --      5.8414                 6.1280                 6.3693
 IR Inten    --     42.6624                21.0540                 5.0416

                     28                     29                     30
                      A                      A                      A
 Frequencies --   3182.2779              3189.9942              3221.6023
 Red. masses --      1.0918                 1.0919                 1.1169
 Frc consts  --      6.5141                 6.5467                 6.8299
 IR Inten    --      1.0663                 8.7655                 5.6588

 - Thermochemistry -
 -------------------
 Temperature   298.150 Kelvin.  Pressure   1.00000 Atm.
 Atom     1 has atomic number  1 and mass   1.00783

 Molecular mass:    82.04186 amu.
 Principal axes and moments of inertia in atomic units:
                           1         2         3
     Eigenvalues --   326.07927 385.84969 668.16697
           X           -0.08847   0.97408   0.20820
           Y            0.64147  -0.10419   0.76004
           Z            0.76203   0.20080  -0.61562
 This molecule is an asymmetric top.
 Rotational symmetry number  1.
 Rotational temperatures (Kelvin)      0.26562     0.22448     0.12963
 Rotational constants (GHZ):           5.53467     4.67732     2.70103
    1 imaginary frequencies ignored.
 Zero-point vibrational energy     251050.1 (Joules/Mol)
                                   60.00240 (Kcal/Mol)
 Warning -- explicit consideration of   5 degrees of freedom as
           vibrations may cause significant error
 Vibrational temperatures:    333.26   541.83   604.07   825.45   848.75
          (Kelvin)           1051.44  1136.56  1277.59  1377.80  1385.54
                             1409.38  1461.98  1501.97  1579.53  1607.65
                             1701.98  1795.96  1937.91  2023.32  2072.62
                             2153.31  2233.34  2326.99  4349.08  4512.03
                             4535.95  4578.59  4589.69  4635.17

 Zero-point correction=                           0.095620 (Hartree/Particle)
 Thermal correction to Energy=                    0.100474
 Thermal correction to Enthalpy=                  0.101419
 Thermal correction to Gibbs Free Energy=         0.067570
 Sum of electronic and zero-point Energies=           -269.298607
 Sum of electronic and thermal Energies=              -269.293753
 Sum of electronic and thermal Enthalpies=            -269.292809
 Sum of electronic and thermal Free Energies=         -269.326658

                     E (Thermal)             CV                S
                      KCal/Mol        Cal/Mol-Kelvin    Cal/Mol-Kelvin
 Total                   63.049             18.185             71.241
 Electronic               0.000              0.000              0.000
 Translational            0.889              2.981             39.128
 Rotational               0.889              2.981             25.933
 Vibrational             61.271             12.223              6.180
 Vibration     1          0.653              1.793              1.866
 Vibration     2          0.747              1.520              1.053
 Vibration     3          0.783              1.427              0.892
 Vibration     4          0.930              1.088              0.497
 Vibration     5          0.947              1.053              0.467

 Optimization completed.
    -- Stationary point found.
 Normal termination of Gaussian 16 at Fri Jun 10 03:19:10 2022.
