 Gaussian 16, Revision A.03,
 Gaussian 16:  ES64L-G16RevA.03 25-Dec-2016

 ----------------------------------------------------------------------
 # Opt=(Z-matrix, MaxStep=10) B3LYP/Def2TZVP geom=allcheckpoint guess=r
 ead Field=read NoSymm
 ----------------------------------------------------------------------

 Structure from the checkpoint file:  "checkpoint.chk"
 ------------------
 int_zmat_initalOpt
 ------------------
 Charge =  0 Multiplicity = 1

 SCF Done:  E(RB3LYP) =  -269.424447033     A.U. after   10 cycles
 SCF Done:  E(RB3LYP) =  -269.424457543     A.U. after   10 cycles
 SCF Done:  E(RB3LYP) =  -269.424465681     A.U. after    9 cycles
 SCF Done:  E(RB3LYP) =  -269.424469640     A.U. after    9 cycles
 SCF Done:  E(RB3LYP) =  -269.424472167     A.U. after    9 cycles
 SCF Done:  E(RB3LYP) =  -269.424472816     A.U. after    8 cycles
 Optimization completed.
    -- Stationary point found.

                         Z-Matrix orientation:
 ---------------------------------------------------------------------
 Center     Atomic      Atomic             Coordinates (Angstroms)
 Number     Number       Type             X           Y           Z
 ---------------------------------------------------------------------
      1          1           0        0.000000    0.000000    0.000000
      2          6           0        0.000000    0.000000    1.082009
      3          6           0        1.126458    0.000000    1.798456
      4          6           0       -1.317203   -0.067608    1.796864
      5          1           0        2.095786    0.029316    1.317759
      6          6           0        1.045881    0.058353    3.250445
      7          8           0       -1.274172    0.544328    3.107344
      8          1           0       -2.102451    0.460372    1.257849
      9          1           0       -1.641052   -1.114181    1.929909
     10          1           0        1.930281   -0.013378    3.866490
     11          6           0       -0.130338    0.372614    3.810046
     12          1           0       -0.262568    0.608193    4.858708
 ---------------------------------------------------------------------

 Alpha  occ. eigenvalues --  -19.18755 -10.25848 -10.25784 -10.19773 -10.19359
 Alpha  occ. eigenvalues --  -10.19313  -1.09596  -0.83612  -0.80061  -0.68991
 Alpha  occ. eigenvalues --   -0.65133  -0.55821  -0.53247  -0.51077  -0.48926
 Alpha  occ. eigenvalues --   -0.46074  -0.43282  -0.40190  -0.38651  -0.35438
 Alpha  occ. eigenvalues --   -0.32715  -0.23360
 Alpha virt. eigenvalues --   -0.05648   0.01821   0.02657   0.05125   0.05383
 Alpha virt. eigenvalues --    0.06663   0.07499   0.08910   0.11241   0.13660
 Alpha virt. eigenvalues --    0.14969   0.16853   0.18518   0.19687   0.20718

 Mulliken charges:
               1
     1  H    0.142647
     2  C   -0.167754
     3  C   -0.109896
     4  C    0.040285
     5  H    0.138854
     6  C   -0.159143
     7  O   -0.276135
     8  H    0.128981
     9  H    0.044542
    10  H    0.103181
    11  C    0.020882
    12  H    0.093557
 Sum of Mulliken charges =  -0.00000

 Dipole moment (field-independent basis, Debye):
    X=              0.5798    Y=              0.1035    Z=             -1.4394  Tot=              1.5553
 Quadrupole moment (field-independent basis, Debye-Ang):
   XX=            -34.3508   YY=            -38.7233   ZZ=            -39.0819
   XY=              0.7343   XZ=              3.4526   YZ=              0.4552

 Normal termination of Gaussian 16 at Fri Mar 18 11:08:46 2022.
