 Gaussian 16, Revision A.03,
 Gaussian 16:  ES64L-G16RevA.03 25-Dec-2016

 ----------------------------------------------------------------------
 # Opt=(TS, CalcFC, noeigentest, Z-matrix, MaxStep=10) geom=allcheckpoi
 nt guess=read Field=read NoSymm B3LYP/Def2TZVP
 ----------------------------------------------------------------------

 Structure from the checkpoint file:  "checkpoint.chk"
 -----------------
 ts_zmat_initalOpt
 -----------------
 Charge =  0 Multiplicity = 1

 SCF Done:  E(RB3LYP) =  -269.396097144     A.U. after   11 cycles

  Exact polarizability:   0.000   0.000   0.000   0.000   0.000   0.000
 Approx polarizability: 125.883 -11.503  95.253  10.329  33.591 111.322

 SCF Done:  E(RB3LYP) =  -269.396123430     A.U. after   12 cycles
 Optimization completed.
    -- Stationary point found.

                         Z-Matrix orientation:
 ---------------------------------------------------------------------
 Center     Atomic      Atomic             Coordinates (Angstroms)
 Number     Number       Type             X           Y           Z
 ---------------------------------------------------------------------
      1          1           0        0.000000    0.000000    0.000000
      2          6           0        0.000000    0.000000    1.082561
      3          6           0        1.192654    0.000000    1.783218
      4          6           0       -1.178089    0.169543    1.808955
      5          1           0        2.114979   -0.268710    1.278659
      6          6           0        1.282926    0.588448    3.056563
      7          1           0       -2.095263    0.451319    1.306814
      8          1           0       -1.307477   -0.402660    2.717675
      9          1           0        2.249066    0.650229    3.539424
     10          6           0        0.332593    1.551902    3.433176
     11          1           0        0.713706    2.386030    4.035556
     12          8           0       -0.866148    1.661380    3.046039
 ---------------------------------------------------------------------

 Alpha  occ. eigenvalues --  -19.17314 -10.28190 -10.25185 -10.22072 -10.19972
 Alpha  occ. eigenvalues --  -10.19280  -1.07541  -0.85477  -0.78612  -0.69576
 Alpha  occ. eigenvalues --   -0.63608  -0.55478  -0.53618  -0.49974  -0.48786
 Alpha  occ. eigenvalues --   -0.47164  -0.42379  -0.41006  -0.40225  -0.35487
 Alpha  occ. eigenvalues --   -0.31854  -0.24350
 Alpha virt. eigenvalues --   -0.09698  -0.03065   0.02005   0.02469   0.04301
 Alpha virt. eigenvalues --    0.05262   0.06877   0.09137   0.10442   0.12523
 Alpha virt. eigenvalues --    0.15016   0.16837   0.17495   0.18141   0.20118

 Mulliken charges:
               1
     1  H    0.148631
     2  C   -0.195248
     3  C   -0.025001
     4  C   -0.068331
     5  H    0.151785
     6  C   -0.267256
     7  H    0.134157
     8  H    0.101325
     9  H    0.103960
    10  C    0.147310
    11  H    0.093552
    12  O   -0.324884
 Sum of Mulliken charges =  -0.00000

 Dipole moment (field-independent basis, Debye):
    X=              1.3723    Y=             -0.8579    Z=             -1.6587  Tot=              2.3174
 Quadrupole moment (field-independent basis, Debye-Ang):
   XX=            -33.0370   YY=            -39.4816   ZZ=            -41.6636
   XY=              2.8339   XZ=              4.7875   YZ=             -1.8879

 Normal termination of Gaussian 16 at Fri Mar 18 11:12:51 2022.
