 Gaussian 16, Revision A.03,
 Gaussian 16:  ES64L-G16RevA.03 25-Dec-2016

 ----------------------------------------------------------------------
 # Opt=(TS, CalcFC, noeigentest, Z-matrix, MaxStep=10) geom=allcheckpoi
 nt guess=read Field=read NoSymm B3LYP/Def2TZVP
 ----------------------------------------------------------------------

 Structure from the checkpoint file:  "checkpoint.chk"
 -----------------
 ts_zmat_initalOpt
 -----------------
 Charge =  0 Multiplicity = 1

 SCF Done:  E(RB3LYP) =  -269.394204135     A.U. after   11 cycles

  Exact polarizability:   0.000   0.000   0.000   0.000   0.000   0.000
 Approx polarizability: 125.301 -11.547  96.405  10.851  33.750 110.663

 SCF Done:  E(RB3LYP) =  -269.394227222     A.U. after   12 cycles
 Optimization completed.
    -- Stationary point found.

                         Z-Matrix orientation:
 ---------------------------------------------------------------------
 Center     Atomic      Atomic             Coordinates (Angstroms)
 Number     Number       Type             X           Y           Z
 ---------------------------------------------------------------------
      1          1           0        0.000000    0.000000    0.000000
      2          6           0        0.000000    0.000000    1.082622
      3          6           0        1.193405    0.000000    1.785765
      4          6           0       -1.174955    0.190510    1.806915
      5          1           0        2.113858   -0.289276    1.288692
      6          6           0        1.286470    0.604026    3.049002
      7          1           0       -2.091704    0.471877    1.304096
      8          1           0       -1.305516   -0.359944    2.728580
      9          1           0        2.248725    0.655964    3.540487
     10          6           0        0.346720    1.589166    3.406102
     11          1           0        0.737186    2.426285    3.997963
     12          8           0       -0.845578    1.709028    3.011078
 ---------------------------------------------------------------------

 Alpha  occ. eigenvalues --  -19.16263 -10.27182 -10.24113 -10.21275 -10.19023
 Alpha  occ. eigenvalues --  -10.18440  -1.06580  -0.84603  -0.77616  -0.68611
 Alpha  occ. eigenvalues --   -0.62644  -0.54545  -0.52724  -0.48975  -0.47830
 Alpha  occ. eigenvalues --   -0.46170  -0.41458  -0.40079  -0.39343  -0.34504
 Alpha  occ. eigenvalues --   -0.30866  -0.23394
 Alpha virt. eigenvalues --   -0.08733  -0.01997   0.03030   0.03580   0.05366
 Alpha virt. eigenvalues --    0.06144   0.07810   0.09814   0.11018   0.13688
 Alpha virt. eigenvalues --    0.16032   0.17885   0.18492   0.19222   0.20850

 Mulliken charges:
               1
     1  H    0.136036
     2  C   -0.195771
     3  C   -0.023349
     4  C   -0.076590
     5  H    0.139670
     6  C   -0.264686
     7  H    0.134177
     8  H    0.111125
     9  H    0.102494
    10  C    0.152431
    11  H    0.099717
    12  O   -0.315255
 Sum of Mulliken charges =  -0.00000

 Dipole moment (field-independent basis, Debye):
    X=              1.1930    Y=             -0.7422    Z=             -1.2372  Tot=              1.8721
 Quadrupole moment (field-independent basis, Debye-Ang):
   XX=            -33.0739   YY=            -39.3607   ZZ=            -39.7375
   XY=              2.7682   XZ=              4.4187   YZ=             -1.3589

 Normal termination of Gaussian 16 at Fri Mar 18 11:09:34 2022.
