 Gaussian 16, Revision A.03,
 Gaussian 16:  ES64L-G16RevA.03 25-Dec-2016

 ----------------------------------------------------------------------
 # Opt=(TS, CalcFC, noeigentest, Z-matrix, MaxStep=10) Field=read NoSym
 m B3LYP/Def2TZVP freq=noraman pop=none
 ----------------------------------------------------------------------

 -----------------
 ts_zmat_initalOpt
 -----------------
 Symbolic Z-matrix:
 Charge =  0 Multiplicity = 1

 SCF Done:  E(RB3LYP) =  -195.276978792     A.U. after   16 cycles
 SCF Done:  E(RB3LYP) =  -195.276989332     A.U. after    9 cycles
 Optimization completed.
    -- Stationary point found.
 Normal termination of Gaussian 16 at Fri Jun 10 22:42:58 2022.

 --------------------------------------------------------------------
 #N Geom=AllCheck Guess=TCheck SCRF=Check GenChk RB3LYP/def2TZVP Freq
 --------------------------------------------------------------------

 Structure from the checkpoint file:  "checkpoint.chk"
 -----------------
 ts_zmat_initalOpt
 -----------------
 Charge =  0 Multiplicity = 1

                          Input orientation:
 ---------------------------------------------------------------------
 Center     Atomic      Atomic             Coordinates (Angstroms)
 Number     Number       Type             X           Y           Z
 ---------------------------------------------------------------------
      1          1           0        0.000000    0.000000    0.000000
      2          6           0        0.000000    0.000000    1.084733
      3          1           0        0.959548    0.000000    1.573636
      4          6           0       -1.153601    0.210990    1.794918
      5          1           0       -1.973591    0.720563    1.281912
      6          6           0       -1.439767   -0.183335    3.095244
      7          1           0       -2.132142    0.411211    3.685133
      8          6           0       -0.867161   -1.421295    3.734870
      9          1           0       -1.079354   -1.374290    4.808668
     10          1           0       -1.319067   -2.337104    3.346201
     11          6           0        0.560489   -1.306830    3.465150
     12          1           0        1.120134   -0.509606    3.932535
     13          1           0        1.089221   -1.983319    2.812012
 ---------------------------------------------------------------------

 SCF Done:  E(RB3LYP) =  -195.276989332     A.U. after    1 cycles

 Isotropic polarizability for W=    0.000000       74.57 Bohr**3.
 End of Minotr F.D. properties file   721 does not exist.

 ******    1 imaginary frequencies (negative Signs) ******

                      1                      2                      3
                      A                      A                      A
 Frequencies --   -423.8227               220.8681               258.3279
 Red. masses --      1.9609                 2.1888                 2.3155
 Frc consts  --      0.2075                 0.0629                 0.0910
 IR Inten    --      0.0670                 0.4363                 1.0855

                      4                      5                      6
                      A                      A                      A
 Frequencies --    373.2723               547.1694               586.4229
 Red. masses --      2.2843                 1.2911                 1.3133
 Frc consts  --      0.1875                 0.2277                 0.2661
 IR Inten    --      6.2625                 7.7720                 3.6535

                      7                      8                      9
                      A                      A                      A
 Frequencies --    654.6730               710.9278               763.0082
 Red. masses --      1.4641                 1.3587                 1.2415
 Frc consts  --      0.3697                 0.4046                 0.4258
 IR Inten    --     13.9821                35.4721                54.0028

                     10                     11                     12
                      A                      A                      A
 Frequencies --    775.9174               825.3602               896.2575
 Red. masses --      1.3911                 1.4809                 1.4721
 Frc consts  --      0.4935                 0.5944                 0.6967
 IR Inten    --     22.3191                 8.0588                 3.7811

                     13                     14                     15
                      A                      A                      A
 Frequencies --    928.7623              1029.3231              1063.1221
 Red. masses --      1.8889                 1.5618                 1.6599
 Frc consts  --      0.9600                 0.9750                 1.1054
 IR Inten    --      3.0300                 0.0350                13.2376

                     16                     17                     18
                      A                      A                      A
 Frequencies --   1130.3453              1153.9908              1219.5256
 Red. masses --      2.1990                 1.9180                 1.2532
 Frc consts  --      1.6554                 1.5049                 1.0981
 IR Inten    --     15.5353                 0.2035                 5.3948

                     19                     20                     21
                      A                      A                      A
 Frequencies --   1266.0997              1307.2033              1400.1419
 Red. masses --      1.2646                 1.3023                 1.3632
 Frc consts  --      1.1944                 1.3111                 1.5746
 IR Inten    --     16.8445                 6.5162                 3.3254

                     22                     23                     24
                      A                      A                      A
 Frequencies --   1424.2364              1482.3973              1497.8061
 Red. masses --      1.1108                 1.2626                 1.4497
 Frc consts  --      1.3276                 1.6347                 1.9163
 IR Inten    --     11.3657                 6.8506                 1.6519

                     25                     26                     27
                      A                      A                      A
 Frequencies --   1591.6257              3011.6737              3054.8951
 Red. masses --      4.0731                 1.0580                 1.0853
 Frc consts  --      6.0794                 5.6539                 5.9674
 IR Inten    --     19.9494                18.5288                19.5897

                     28                     29                     30
                      A                      A                      A
 Frequencies --   3058.0455              3133.4143              3138.8039
 Red. masses --      1.0992                 1.0841                 1.0680
 Frc consts  --      6.0566                 6.2710                 6.1994
 IR Inten    --     15.5325                24.1388                 6.1259

                     31                     32                     33
                      A                      A                      A
 Frequencies --   3167.0964              3256.3701              3271.0008
 Red. masses --      1.0515                 1.1045                 1.1187
 Frc consts  --      6.2143                 6.9008                 7.0525
 IR Inten    --      3.7419                10.4869                 2.2613

 - Thermochemistry -
 -------------------
 Temperature   298.150 Kelvin.  Pressure   1.00000 Atm.
 Atom     1 has atomic number  1 and mass   1.00783

 Molecular mass:    68.06260 amu.
 Principal axes and moments of inertia in atomic units:
                           1         2         3
     Eigenvalues --   212.12381 401.94700 565.15195
           X            0.07546   0.93146   0.35593
           Y           -0.52479  -0.26642   0.80846
           Z            0.84788  -0.24780   0.46872
 This molecule is an asymmetric top.
 Rotational symmetry number  1.
 Rotational temperatures (Kelvin)      0.40832     0.21549     0.15326
 Rotational constants (GHZ):           8.50796     4.49000     3.19337
    1 imaginary frequencies ignored.
 Zero-point vibrational energy     288288.6 (Joules/Mol)
                                   68.90262 (Kcal/Mol)
 Warning -- explicit consideration of   5 degrees of freedom as
           vibrations may cause significant error
 Vibrational temperatures:    317.78   371.68   537.06   787.25   843.73
          (Kelvin)            941.93  1022.87  1097.80  1116.37  1187.51
                             1289.51  1336.28  1480.97  1529.60  1626.31
                             1660.34  1754.63  1821.64  1880.77  2014.49
                             2049.16  2132.84  2155.01  2289.99  4333.13
                             4395.31  4399.85  4508.28  4516.04  4556.75
                             4685.19  4706.24

 Zero-point correction=                           0.109803 (Hartree/Particle)
 Thermal correction to Energy=                    0.115096
 Thermal correction to Enthalpy=                  0.116041
 Thermal correction to Gibbs Free Energy=         0.081988
 Sum of electronic and zero-point Energies=           -195.167186
 Sum of electronic and thermal Energies=              -195.161893
 Sum of electronic and thermal Enthalpies=            -195.160949
 Sum of electronic and thermal Free Energies=         -195.195001

                     E (Thermal)             CV                S
                      KCal/Mol        Cal/Mol-Kelvin    Cal/Mol-Kelvin
 Total                   72.224             20.029             71.669
 Electronic               0.000              0.000              0.000
 Translational            0.889              2.981             38.571
 Rotational               0.889              2.981             25.380
 Vibrational             70.447             14.068              7.718
 Vibration     1          0.648              1.809              1.952
 Vibration     2          0.667              1.749              1.673
 Vibration     3          0.745              1.527              1.066
 Vibration     4          0.902              1.146              0.550
 Vibration     5          0.943              1.061              0.474

 Optimization completed.
    -- Stationary point found.
 Normal termination of Gaussian 16 at Fri Jun 10 22:45:29 2022.
