 Gaussian 16, Revision A.03,
 Gaussian 16:  ES64L-G16RevA.03 25-Dec-2016

 --------------------------
 # sp B3LYP/Def2TZVP NoSymm
 --------------------------

 ---------------------------
 ts_initalOpt_zmat_AlignedSp
 ---------------------------
 Symbolic Z-matrix:
 Charge =  0 Multiplicity = 1

                          Input orientation:
 ---------------------------------------------------------------------
 Center     Atomic      Atomic             Coordinates (Angstroms)
 Number     Number       Type             X           Y           Z
 ---------------------------------------------------------------------
      1          1           0        0.000000    0.000000    0.000000
      2          6           0        0.000000    0.000000    1.084224
      3          1           0        0.958956    0.000000    1.574391
      4          6           0       -1.153294    0.205177    1.794598
      5          1           0       -1.974672    0.712521    1.282225
      6          6           0       -1.436817   -0.194932    3.094130
      7          1           0       -2.131237    0.395653    3.686265
      8          6           0       -0.860803   -1.434235    3.725608
      9          1           0       -1.076725   -1.398199    4.799474
     10          1           0       -1.308436   -2.348126    3.326907
     11          6           0        0.569242   -1.317260    3.459289
     12          1           0        1.125930   -0.517419    3.925945
     13          1           0        1.097678   -1.984637    2.796730
 ---------------------------------------------------------------------

 SCF Done:  E(RB3LYP) =  -195.276144741     A.U. after   16 cycles

 Alpha  occ. eigenvalues --  -10.18740 -10.18600 -10.18469 -10.17559 -10.16489
 Alpha  occ. eigenvalues --   -0.82368  -0.75245  -0.67093  -0.60108  -0.53463
 Alpha  occ. eigenvalues --   -0.48759  -0.46778  -0.42583  -0.41454  -0.39516
 Alpha  occ. eigenvalues --   -0.36521  -0.35512  -0.27343  -0.18397
 Alpha virt. eigenvalues --   -0.08328   0.01288   0.04902   0.06718   0.07387
 Alpha virt. eigenvalues --    0.08207   0.10560   0.11562   0.13789   0.14193
 Alpha virt. eigenvalues --    0.17698   0.19088   0.19568   0.20430   0.22977

 Mulliken charges:
               1
     1  H    0.107188
     2  C   -0.312266
     3  H    0.138316
     4  C   -0.044782
     5  H    0.105544
     6  C   -0.171227
     7  H    0.103282
     8  C   -0.070723
     9  H    0.106793
    10  H    0.098588
    11  C   -0.344064
    12  H    0.140340
    13  H    0.143010
 Sum of Mulliken charges =  -0.00000

 Dipole moment (field-independent basis, Debye):
    X=             -0.2748    Y=             -0.1699    Z=              0.5184  Tot=              0.6108
 Quadrupole moment (field-independent basis, Debye-Ang):
   XX=            -31.2867   YY=            -33.5686   ZZ=            -28.8040
   XY=             -0.3895   XZ=             -1.6712   YZ=             -0.5065

 Normal termination of Gaussian 16 at Fri Jun 10 22:26:28 2022.
