 Gaussian 16, Revision A.03,
 Gaussian 16:  ES64L-G16RevA.03 25-Dec-2016

 ----------------------------------------------------------------------
 # Opt=(TS, CalcFC, noeigentest, Z-matrix, MaxStep=10) Field=read NoSym
 m B3LYP/Def2TZVP freq=noraman pop=none
 ----------------------------------------------------------------------

 -----------------
 ts_zmat_initalOpt
 -----------------
 Symbolic Z-matrix:
 Charge =  0 Multiplicity = 1

 SCF Done:  E(RB3LYP) =  -309.678544895     A.U. after   14 cycles
 SCF Done:  E(RB3LYP) =  -309.678557302     A.U. after   10 cycles
 Optimization completed.
    -- Stationary point found.
 Normal termination of Gaussian 16 at Fri Jun 10 22:33:54 2022.

 --------------------------------------------------------------------
 #N Geom=AllCheck Guess=TCheck SCRF=Check GenChk RB3LYP/def2TZVP Freq
 --------------------------------------------------------------------

 Structure from the checkpoint file:  "checkpoint.chk"
 -----------------
 ts_zmat_initalOpt
 -----------------
 Charge =  0 Multiplicity = 1

                          Input orientation:
 ---------------------------------------------------------------------
 Center     Atomic      Atomic             Coordinates (Angstroms)
 Number     Number       Type             X           Y           Z
 ---------------------------------------------------------------------
      1          1           0        0.000000    0.000000    0.000000
      2          6           0        0.000000    0.000000    1.082681
      3          6           0        1.199214    0.000000    1.766334
      4          6           0       -1.238199   -0.052503    1.762719
      5          1           0        2.143782   -0.027566    1.236357
      6          6           0        1.136598   -0.077127    3.168057
      7          6           0       -1.306672   -0.014170    3.140884
      8          1           0       -2.150908   -0.083478    1.181168
      9          6           0        2.098501   -0.381672    4.174518
     10          6           0       -0.092530    0.102108    3.838804
     11          1           0       -2.261753    0.013036    3.651693
     12          1           0        1.908821   -1.228392    4.814477
     13          6           0        0.233941    0.450702    5.181513
     14          1           0        3.144156   -0.087488    4.099740
     15          1           0        0.862064    1.312390    5.340938
     16          1           0       -0.386672    0.171080    6.031326
 ---------------------------------------------------------------------

 SCF Done:  E(RB3LYP) =  -309.678557302     A.U. after    1 cycles

 Isotropic polarizability for W=    0.000000       98.26 Bohr**3.
 End of Minotr F.D. properties file   721 does not exist.

 ******    1 imaginary frequencies (negative Signs) ******

                      1                      2                      3
                      A                      A                      A
 Frequencies --   -626.9251               224.8050               225.9346
 Red. masses --      2.1697                 2.8765                 3.2451
 Frc consts  --      0.5024                 0.0856                 0.0976
 IR Inten    --      7.4688                 0.9422                 5.0750

                      4                      5                      6
                      A                      A                      A
 Frequencies --    397.0704               432.5795               525.9266
 Red. masses --      2.7301                 3.0019                 3.1271
 Frc consts  --      0.2536                 0.3310                 0.5096
 IR Inten    --      6.1623                 5.3584                 1.2509

                      7                      8                      9
                      A                      A                      A
 Frequencies --    577.5412               593.6010               653.8726
 Red. masses --      5.1833                 4.0366                 1.2855
 Frc consts  --      1.0187                 0.8380                 0.3238
 IR Inten    --      0.0227                 4.6447                19.8856

                     10                     11                     12
                      A                      A                      A
 Frequencies --    660.9429               745.6984               773.1163
 Red. masses --      1.0943                 3.1885                 1.2352
 Frc consts  --      0.2816                 1.0446                 0.4350
 IR Inten    --      3.2177                 5.1294                55.7252

                     13                     14                     15
                      A                      A                      A
 Frequencies --    815.7416               859.0759               879.4639
 Red. masses --      3.6653                 1.3039                 1.5283
 Frc consts  --      1.4370                 0.5670                 0.6965
 IR Inten    --      0.1739                 9.6567                14.5292

                     16                     17                     18
                      A                      A                      A
 Frequencies --    885.5166               890.9891               950.6886
 Red. masses --      3.3062                 1.5882                 1.3610
 Frc consts  --      1.5275                 0.7429                 0.7247
 IR Inten    --      1.8294                40.3882                 5.7927

                     19                     20                     21
                      A                      A                      A
 Frequencies --    986.1796              1009.6391              1015.9861
 Red. masses --      1.2933                 1.4691                 2.1577
 Frc consts  --      0.7411                 0.8823                 1.3123
 IR Inten    --      0.3858                 2.5123                 0.0028

                     22                     23                     24
                      A                      A                      A
 Frequencies --   1042.2295              1145.4641              1181.9093
 Red. masses --      1.5542                 1.4795                 1.1032
 Frc consts  --      0.9947                 1.1437                 0.9080
 IR Inten    --     12.8473                 0.6855                 0.0004

                     25                     26                     27
                      A                      A                      A
 Frequencies --   1238.6582              1324.5220              1333.8199
 Red. masses --      2.3372                 1.6670                 2.7638
 Frc consts  --      2.1128                 1.7231                 2.8970
 IR Inten    --      8.3186                 0.0708                 2.4436

                     28                     29                     30
                      A                      A                      A
 Frequencies --   1372.9021              1472.3480              1492.0838
 Red. masses --      4.1435                 1.3984                 1.5246
 Frc consts  --      4.6014                 1.7861                 1.9999
 IR Inten    --      0.0022                 6.5605                 2.8711

                     31                     32                     33
                      A                      A                      A
 Frequencies --   1507.3077              1526.1394              1585.3951
 Red. masses --      2.0923                 2.1165                 5.1537
 Frc consts  --      2.8008                 2.9044                 7.6321
 IR Inten    --      2.7720                 4.3731                 5.9426

                     34                     35                     36
                      A                      A                      A
 Frequencies --   1632.6448              3099.1705              3099.7001
 Red. masses --      5.6079                 1.0645                 1.0662
 Frc consts  --      8.8071                 6.0241                 6.0358
 IR Inten    --      1.3265                25.9325                30.3107

                     37                     38                     39
                      A                      A                      A
 Frequencies --   3166.0394              3170.6451              3182.4199
 Red. masses --      1.0860                 1.0882                 1.0932
 Frc consts  --      6.4139                 6.4454                 6.5232
 IR Inten    --      4.3197                 0.3043                21.6326

                     40                     41                     42
                      A                      A                      A
 Frequencies --   3194.0693              3231.9835              3233.3824
 Red. masses --      1.0962                 1.1016                 1.1023
 Frc consts  --      6.5890                 6.7799                 6.7898
 IR Inten    --     10.2206                 4.2264                 2.9834

 - Thermochemistry -
 -------------------
 Temperature   298.150 Kelvin.  Pressure   1.00000 Atm.
 Atom     1 has atomic number  1 and mass   1.00783

 Molecular mass:   104.06260 amu.
 Principal axes and moments of inertia in atomic units:
                           1         2         3
     Eigenvalues --   471.24286 811.910211239.33421
           X            0.48081   0.87207   0.09117
           Y            0.01636  -0.11288   0.99347
           Z            0.87667  -0.47618  -0.06854
 This molecule is an asymmetric top.
 Rotational symmetry number  1.
 Warning -- assumption of classical behavior for rotation
           may cause significant error
 Rotational temperatures (Kelvin)      0.18380     0.10668     0.06989
 Rotational constants (GHZ):           3.82975     2.22283     1.45622
    1 imaginary frequencies ignored.
 Zero-point vibrational energy     342952.6 (Joules/Mol)
                                   81.96765 (Kcal/Mol)
 Warning -- explicit consideration of   7 degrees of freedom as
           vibrations may cause significant error
 Vibrational temperatures:    323.44   325.07   571.30   622.39   756.69
          (Kelvin)            830.95   854.06   940.78   950.95  1072.89
                             1112.34  1173.67  1236.02  1265.35  1274.06
                             1281.93  1367.83  1418.89  1452.65  1461.78
                             1499.54  1648.07  1700.50  1782.15  1905.69
                             1919.07  1975.30  2118.38  2146.78  2168.68
                             2195.77  2281.03  2349.01  4459.02  4459.78
                             4555.22  4561.85  4578.79  4595.55  4650.10
                             4652.12

 Zero-point correction=                           0.130624 (Hartree/Particle)
 Thermal correction to Energy=                    0.136678
 Thermal correction to Enthalpy=                  0.137622
 Thermal correction to Gibbs Free Energy=         0.100831
 Sum of electronic and zero-point Energies=           -309.547934
 Sum of electronic and thermal Energies=              -309.541879
 Sum of electronic and thermal Enthalpies=            -309.540935
 Sum of electronic and thermal Free Energies=         -309.577727

                     E (Thermal)             CV                S
                      KCal/Mol        Cal/Mol-Kelvin    Cal/Mol-Kelvin
 Total                   85.767             25.088             77.434
 Electronic               0.000              0.000              0.000
 Translational            0.889              2.981             39.837
 Rotational               0.889              2.981             27.652
 Vibrational             83.989             19.126              9.945
 Vibration     1          0.649              1.803              1.920
 Vibration     2          0.650              1.802              1.911
 Vibration     3          0.764              1.476              0.973
 Vibration     4          0.793              1.399              0.850
 Vibration     5          0.881              1.193              0.596
 Vibration     6          0.934              1.080              0.490
 Vibration     7          0.951              1.045              0.461

 Optimization completed.
    -- Stationary point found.
 Normal termination of Gaussian 16 at Fri Jun 10 22:40:56 2022.
