 Gaussian 16, Revision A.03,
 Gaussian 16:  ES64L-G16RevA.03 25-Dec-2016

 ----------------------------------------------------------------------
 # Opt=(Z-matrix, MaxStep=10) B3LYP/Def2TZVP geom=allcheckpoint guess=r
 ead Field=read NoSymm freq=noraman pop=none
 ----------------------------------------------------------------------

 Structure from the checkpoint file:  "checkpoint.chk"
 ------------------
 int_zmat_initalOpt
 ------------------
 Charge =  0 Multiplicity = 1

 SCF Done:  E(RB3LYP) =  -387.400107411     A.U. after   10 cycles
 SCF Done:  E(RB3LYP) =  -387.400124695     A.U. after    8 cycles
 SCF Done:  E(RB3LYP) =  -387.400130906     A.U. after    8 cycles
 SCF Done:  E(RB3LYP) =  -387.400131769     A.U. after    7 cycles
 Optimization completed.
    -- Stationary point found.

 1\1\GINC-BHC0105\FOpt\RB3LYP\def2TZVP\C8H12O1\DHANAWAY\11-Jun-2022\1\\
 # Opt=(Z-matrix, MaxStep=10) B3LYP/Def2TZVP geom=allcheckpoint guess=r
 ead Field=read NoSymm freq=noraman pop=none\\int_zmat_initalOpt\\0,1\H
 \C,1,R2\C,2,R3,1,A3\O,2,R4,1,A4,3,D4,0\H,2,R5,1,A5,3,D5,0\C,4,R6,2,A6,
 1,D6,0\C,3,R7,2,A7,1,D7,0\C,3,R8,2,A8,7,D8,0\H,6,R9,4,A9,2,D9,0\H,6,R1
 0,4,A10,9,D10,0\C,7,R11,3,A11,2,D11,0\H,7,R12,3,A12,11,D12,0\H,8,R13,3
 ,A13,2,D13,0\C,8,R14,3,A14,13,D14,0\C,11,R15,7,A15,3,D15,0\H,11,R16,7,
 A16,15,D16,0\H,14,R17,8,A17,3,D17,0\H,14,R18,8,A18,17,D18,0\H,14,R19,8

 Normal termination of Gaussian 16 at Sat Jun 11 00:59:45 2022.

 --------------------------------------------------------------------
 #N Geom=AllCheck Guess=TCheck SCRF=Check GenChk RB3LYP/def2TZVP Freq
 --------------------------------------------------------------------

 Structure from the checkpoint file:  "checkpoint.chk"
 ------------------
 int_zmat_initalOpt
 ------------------
 Charge =  0 Multiplicity = 1

                          Input orientation:
 ---------------------------------------------------------------------
 Center     Atomic      Atomic             Coordinates (Angstroms)
 Number     Number       Type             X           Y           Z
 ---------------------------------------------------------------------
      1          1           0        0.000000    0.000000    0.000000
      2          6           0        0.000000    0.000000    1.099405
      3          6           0        1.397052    0.000000    1.681717
      4          8           0       -0.636408    1.201676    1.560452
      5          1           0       -0.604759   -0.845323    1.438140
      6          6           0        0.379626    2.104418    1.993965
      7          6           0        1.481662    1.226218    2.584582
      8          6           0        2.345518   -0.902418    1.459820
      9          1           0       -0.068772    2.789098    2.714673
     10          1           0        0.764306    2.684784    1.141644
     11          6           0        2.839952    1.840281    2.739399
     12          1           0        1.148932    0.914570    3.585012
     13          1           0        3.304434   -0.782099    1.953001
     14          6           0        2.214822   -2.128470    0.610352
     15          6           0        3.163756    3.110144    2.525593
     16          1           0        3.610008    1.167391    3.102635
     17          1           0        1.255852   -2.183041    0.092371
     18          1           0        2.316721   -3.029327    1.222039
     19          1           0        3.013666   -2.174399   -0.135230
     20          1           0        2.442520    3.848808    2.194083
     21          1           0        4.171897    3.462686    2.700711
 ---------------------------------------------------------------------

 SCF Done:  E(RB3LYP) =  -387.400131769     A.U. after    1 cycles

 Isotropic polarizability for W=    0.000000       97.57 Bohr**3.
 End of Minotr F.D. properties file   721 does not exist.

                      1                      2                      3
                      A                      A                      A
 Frequencies --     44.8019                77.7232               132.1899
 Red. masses --      2.3949                 2.5185                 1.0314
 Frc consts  --      0.0028                 0.0090                 0.0106
 IR Inten    --      0.4704                 0.1503                 0.3469

                      4                      5                      6
                      A                      A                      A
 Frequencies --    178.0526               183.3905               192.0784
 Red. masses --      2.4492                 3.3428                 2.3192
 Frc consts  --      0.0457                 0.0662                 0.0504
 IR Inten    --      0.4337                 1.6399                 5.8801

                      7                      8                      9
                      A                      A                      A
 Frequencies --    241.1603               321.4043               431.2219
 Red. masses --      3.0182                 2.5604                 2.7486
 Frc consts  --      0.1034                 0.1558                 0.3011
 IR Inten    --      0.6320                 0.4120                 0.9636

                     10                     11                     12
                      A                      A                      A
 Frequencies --    487.5206               532.1421               573.1110
 Red. masses --      2.6767                 2.3565                 2.8716
 Frc consts  --      0.3748                 0.3932                 0.5557
 IR Inten    --      4.2158                 3.1901                 2.4813

                     13                     14                     15
                      A                      A                      A
 Frequencies --    644.7945               699.3291               797.0118
 Red. masses --      4.9759                 1.9709                 2.2996
 Frc consts  --      1.2189                 0.5679                 0.8607
 IR Inten    --      2.5236                11.2331                 5.7187

                     16                     17                     18
                      A                      A                      A
 Frequencies --    865.7652               935.1955               936.2779
 Red. masses --      1.2617                 2.3850                 1.7366
 Frc consts  --      0.5572                 1.2290                 0.8969
 IR Inten    --      6.8442                28.9158                56.7617

                     19                     20                     21
                      A                      A                      A
 Frequencies --    956.7894               990.8902              1010.5516
 Red. masses --      3.4549                 1.6572                 1.7041
 Frc consts  --      1.8634                 0.9587                 1.0253
 IR Inten    --      5.0580                17.0906                10.6921

                     22                     23                     24
                      A                      A                      A
 Frequencies --   1020.0938              1036.4413              1053.7775
 Red. masses --      1.5154                 1.4280                 1.3951
 Frc consts  --      0.9291                 0.9038                 0.9127
 IR Inten    --      6.9042                 1.2953                10.1675

                     25                     26                     27
                      A                      A                      A
 Frequencies --   1065.4475              1081.3888              1104.1338
 Red. masses --      1.5820                 6.0681                 2.6765
 Frc consts  --      1.0581                 4.1809                 1.9225
 IR Inten    --      1.4394                62.3044                27.6367

                     28                     29                     30
                      A                      A                      A
 Frequencies --   1167.3747              1193.4292              1220.4194
 Red. masses --      2.0865                 1.9730                 1.2027
 Frc consts  --      1.6753                 1.6557                 1.0554
 IR Inten    --      6.7143                 6.2624                 0.3916

                     31                     32                     33
                      A                      A                      A
 Frequencies --   1238.4514              1285.3381              1317.9164
 Red. masses --      1.2894                 1.2934                 1.3650
 Frc consts  --      1.1652                 1.2589                 1.3969
 IR Inten    --      1.7666                 4.6876                 0.2326

                     34                     35                     36
                      A                      A                      A
 Frequencies --   1336.7447              1354.4037              1385.9259
 Red. masses --      1.2416                 1.2457                 1.4116
 Frc consts  --      1.3072                 1.3463                 1.5975
 IR Inten    --      2.8351                 0.6622                 6.7266

                     37                     38                     39
                      A                      A                      A
 Frequencies --   1399.8973              1417.7489              1462.0800
 Red. masses --      1.5424                 1.2778                 1.2042
 Frc consts  --      1.7809                 1.5132                 1.5166
 IR Inten    --      3.0431                 1.1811                 1.3508

                     40                     41                     42
                      A                      A                      A
 Frequencies --   1481.0535              1492.2915              1505.1834
 Red. masses --      1.0434                 1.0643                 1.0831
 Frc consts  --      1.3485                 1.3965                 1.4457
 IR Inten    --      5.2802                14.4327                 0.1283

                     43                     44                     45
                      A                      A                      A
 Frequencies --   1519.3195              1702.9720              1751.0061
 Red. masses --      1.0937                 4.5420                 7.6750
 Frc consts  --      1.4875                 7.7609                13.8644
 IR Inten    --      1.0547                21.3454                 1.7758

                     46                     47                     48
                      A                      A                      A
 Frequencies --   2946.1586              2955.6935              2978.2390
 Red. masses --      1.0714                 1.0737                 1.0804
 Frc consts  --      5.4790                 5.5263                 5.6459
 IR Inten    --     67.3341                86.7974                15.2700

                     49                     50                     51
                      A                      A                      A
 Frequencies --   3022.6195              3043.3827              3067.4425
 Red. masses --      1.0362                 1.0890                 1.0990
 Frc consts  --      5.5775                 5.9430                 6.0925
 IR Inten    --     23.8096                24.5198                 9.5457

                     52                     53                     54
                      A                      A                      A
 Frequencies --   3081.7320              3092.0239              3132.4600
 Red. masses --      1.0913                 1.1007                 1.0600
 Frc consts  --      6.1066                 6.2002                 6.1280
 IR Inten    --     41.2288                23.8824                17.0901

                     55                     56                     57
                      A                      A                      A
 Frequencies --   3151.4279              3158.4990              3214.9432
 Red. masses --      1.0902                 1.0887                 1.1137
 Frc consts  --      6.3793                 6.3990                 6.7819
 IR Inten    --      1.3411                 6.6389                11.3887

 - Thermochemistry -
 -------------------
 Temperature   298.150 Kelvin.  Pressure   1.00000 Atm.
 Atom     1 has atomic number  1 and mass   1.00783

 Molecular mass:   124.08882 amu.
 Principal axes and moments of inertia in atomic units:
                           1         2         3
     Eigenvalues --   836.204621360.576152071.11802
           X            0.12458   0.97681  -0.17413
           Y            0.92057  -0.17927  -0.34702
           Z            0.37019   0.11706   0.92155
 This molecule is an asymmetric top.
 Rotational symmetry number  1.
 Warning -- assumption of classical behavior for rotation
           may cause significant error
 Rotational temperatures (Kelvin)      0.10358     0.06366     0.04182
 Rotational constants (GHZ):           2.15825     1.32645     0.87139
 Zero-point vibrational energy     476525.6 (Joules/Mol)
                                  113.89236 (Kcal/Mol)
 Warning -- explicit consideration of  12 degrees of freedom as
           vibrations may cause significant error
 Vibrational temperatures:     64.46   111.83   190.19   256.18   263.86
          (Kelvin)            276.36   346.98   462.43   620.43   701.43
                              765.63   824.58   927.72  1006.18  1146.72
                             1245.64  1345.54  1347.10  1376.61  1425.67
                             1453.96  1467.69  1491.21  1516.15  1532.94
                             1555.88  1588.60  1679.59  1717.08  1755.91
                             1781.86  1849.31  1896.19  1923.28  1948.68
                             1994.04  2014.14  2039.82  2103.61  2130.91
                             2147.07  2165.62  2185.96  2450.20  2519.31
                             4238.87  4252.58  4285.02  4348.88  4378.75
                             4413.37  4433.92  4448.73  4506.91  4534.20
                             4544.38  4625.59

 Zero-point correction=                           0.181499 (Hartree/Particle)
 Thermal correction to Energy=                    0.191107
 Thermal correction to Enthalpy=                  0.192051
 Thermal correction to Gibbs Free Energy=         0.146201
 Sum of electronic and zero-point Energies=           -387.218633
 Sum of electronic and thermal Energies=              -387.209025
 Sum of electronic and thermal Enthalpies=            -387.208081
 Sum of electronic and thermal Free Energies=         -387.253931

                     E (Thermal)             CV                S
                      KCal/Mol        Cal/Mol-Kelvin    Cal/Mol-Kelvin
 Total                  119.921             34.856             96.500
 Electronic               0.000              0.000              0.000
 Translational            0.889              2.981             40.361
 Rotational               0.889              2.981             29.245
 Vibrational            118.144             28.895             26.893
 Vibration     1          0.595              1.979              5.035
 Vibration     2          0.599              1.964              3.948
 Vibration     3          0.612              1.921              2.914
 Vibration     4          0.628              1.869              2.349
 Vibration     5          0.631              1.862              2.294
 Vibration     6          0.634              1.851              2.208
 Vibration     7          0.658              1.777              1.794
 Vibration     8          0.707              1.633              1.303
 Vibration     9          0.792              1.402              0.855
 Vibration    10          0.843              1.278              0.690
 Vibration    11          0.887              1.179              0.582
 Vibration    12          0.929              1.089              0.498

                       ! Non-Optimized Parameters !

 1\1\GINC-BHC0105\Freq\RB3LYP\def2TZVP\C8H12O1\DHANAWAY\11-Jun-2022\1\\
 #N Geom=AllCheck Guess=TCheck SCRF=Check GenChk RB3LYP/def2TZVP Freq\\
 int_zmat_initalOpt\\0,1\H\C,1,R2\C,2,R3,1,A3\O,2,R4,1,A4,3,D4,0\H,2,R5
 ,1,A5,3,D5,0\C,4,R6,2,A6,1,D6,0\C,3,R7,2,A7,1,D7,0\C,3,R8,2,A8,7,D8,0\
 H,6,R9,4,A9,2,D9,0\H,6,R10,4,A10,9,D10,0\C,7,R11,3,A11,2,D11,0\H,7,R12
 ,3,A12,11,D12,0\H,8,R13,3,A13,2,D13,0\C,8,R14,3,A14,13,D14,0\C,11,R15,
 7,A15,3,D15,0\H,11,R16,7,A16,15,D16,0\H,14,R17,8,A17,3,D17,0\H,14,R18,
 8,A18,17,D18,0\H,14,R19,8,A19,17,D19,0\H,15,R20,11,A20,7,D20,0\H,15,R2

 Normal termination of Gaussian 16 at Sat Jun 11 01:12:08 2022.
