 Gaussian 16, Revision A.03,
 Gaussian 16:  ES64L-G16RevA.03 25-Dec-2016

 ----------------------------------------------------------------------
 # Opt=(Z-matrix, MaxStep=10) B3LYP/Def2TZVP geom=allcheckpoint guess=r
 ead Field=read NoSymm freq=noraman pop=none
 ----------------------------------------------------------------------

 Structure from the checkpoint file:  "checkpoint.chk"
 ------------------
 int_zmat_initalOpt
 ------------------
 Charge =  0 Multiplicity = 1

 SCF Done:  E(RB3LYP) =  -312.118422547     A.U. after   10 cycles
 SCF Done:  E(RB3LYP) =  -312.118427584     A.U. after    8 cycles
 SCF Done:  E(RB3LYP) =  -312.118428050     A.U. after    9 cycles
 SCF Done:  E(RB3LYP) =  -312.118430968     A.U. after    8 cycles
 Optimization completed.
    -- Stationary point found.
 Normal termination of Gaussian 16 at Sat Jun 11 00:03:08 2022.

 --------------------------------------------------------------------
 #N Geom=AllCheck Guess=TCheck SCRF=Check GenChk RB3LYP/def2TZVP Freq
 --------------------------------------------------------------------

 Structure from the checkpoint file:  "checkpoint.chk"
 ------------------
 int_zmat_initalOpt
 ------------------
 Charge =  0 Multiplicity = 1

                          Input orientation:
 ---------------------------------------------------------------------
 Center     Atomic      Atomic             Coordinates (Angstroms)
 Number     Number       Type             X           Y           Z
 ---------------------------------------------------------------------
      1          6           0        0.000000    0.000000    0.000000
      2          6           0        0.000000    0.000000    1.586972
      3          6           0        1.357780    0.000000   -0.634035
      4          6           0       -0.759802   -1.349810    0.071745
      5          1           0       -0.575484    0.828301   -0.422498
      6          6           0       -0.300054   -1.514848    1.539637
      7          6           0        1.163454    0.546153    2.342642
      8          6           0        1.902802   -0.956230   -1.374998
      9          1           0       -1.838250   -1.198384   -0.007152
     10          1           0       -0.470653   -2.127037   -0.632633
     11          1           0       -0.901365    0.539192    1.902643
     12          1           0        1.930223    0.909177   -0.470787
     13          6           0        1.984465   -0.141092    3.128184
     14          1           0        1.338287    1.612607    2.217592
     15          1           0        0.613751   -2.105812    1.600361
     16          1           0       -1.020207   -1.906531    2.261958
     17          1           0        1.395103   -1.886587   -1.598291
     18          1           0        2.887708   -0.833913   -1.805812
     19          1           0        2.816217    0.337058    3.629172
     20          1           0        1.876773   -1.209173    3.276726
 ---------------------------------------------------------------------

 SCF Done:  E(RB3LYP) =  -312.118430968     A.U. after    1 cycles

 Isotropic polarizability for W=    0.000000       92.45 Bohr**3.
 End of Minotr F.D. properties file   721 does not exist.

                      1                      2                      3
                      A                      A                      A
 Frequencies --     63.9741                93.1430               110.3451
 Red. masses --      2.9161                 2.1659                 2.3480
 Frc consts  --      0.0070                 0.0111                 0.0168
 IR Inten    --      0.1642                 0.0792                 0.0494

                      4                      5                      6
                      A                      A                      A
 Frequencies --    206.4395               251.1321               304.0344
 Red. masses --      2.1455                 2.4546                 2.4208
 Frc consts  --      0.0539                 0.0912                 0.1318
 IR Inten    --      0.0359                 0.4510                 0.1558

                      7                      8                      9
                      A                      A                      A
 Frequencies --    398.0333               494.7599               532.8735
 Red. masses --      2.0246                 2.1499                 2.1246
 Frc consts  --      0.1890                 0.3101                 0.3554
 IR Inten    --      3.2508                 3.1129                 0.8780

                     10                     11                     12
                      A                      A                      A
 Frequencies --    602.8079               642.0439               733.4133
 Red. masses --      1.9928                 2.0036                 1.5014
 Frc consts  --      0.4266                 0.4866                 0.4758
 IR Inten    --      3.2528                 5.7157                 2.2399

                     13                     14                     15
                      A                      A                      A
 Frequencies --    770.1720               812.4418               909.2943
 Red. masses --      1.8155                 2.1949                 2.2038
 Frc consts  --      0.6345                 0.8536                 1.0736
 IR Inten    --      3.9294                 3.2310                 4.5558

                     16                     17                     18
                      A                      A                      A
 Frequencies --    935.8580               944.7100               946.9753
 Red. masses --      2.6311                 2.3247                 1.3783
 Frc consts  --      1.3577                 1.2224                 0.7282
 IR Inten    --      1.3329                 6.6326                42.4985

                     19                     20                     21
                      A                      A                      A
 Frequencies --    967.1315               979.7069              1024.6627
 Red. masses --      1.3279                 1.6936                 1.2023
 Frc consts  --      0.7318                 0.9577                 0.7438
 IR Inten    --     41.4776                 0.3506                 1.7492

                     22                     23                     24
                      A                      A                      A
 Frequencies --   1032.4497              1038.0136              1060.7914
 Red. masses --      1.1557                 1.1447                 1.8526
 Frc consts  --      0.7258                 0.7267                 1.2283
 IR Inten    --      8.0280                 7.4532                 3.4798

                     25                     26                     27
                      A                      A                      A
 Frequencies --   1083.7452              1121.1279              1159.4319
 Red. masses --      1.7934                 1.5455                 1.8140
 Frc consts  --      1.2410                 1.1445                 1.4367
 IR Inten    --      7.4957                 5.4278                 0.5566

                     28                     29                     30
                      A                      A                      A
 Frequencies --   1204.3100              1223.0632              1257.3936
 Red. masses --      1.3352                 1.2811                 1.3556
 Frc consts  --      1.1410                 1.1291                 1.2628
 IR Inten    --      3.0927                 1.0240                 0.4427

                     31                     32                     33
                      A                      A                      A
 Frequencies --   1266.3947              1271.7458              1333.4870
 Red. masses --      1.3370                 1.4541                 1.2983
 Frc consts  --      1.2633                 1.3856                 1.3602
 IR Inten    --      2.9065                 0.0186                 0.3618

                     34                     35                     36
                      A                      A                      A
 Frequencies --   1341.7175              1358.6885              1378.0764
 Red. masses --      1.2921                 1.4219                 1.6685
 Frc consts  --      1.3705                 1.5465                 1.8669
 IR Inten    --      0.1582                 2.4589                 4.6337

                     37                     38                     39
                      A                      A                      A
 Frequencies --   1457.3080              1457.9891              1484.8726
 Red. masses --      1.1977                 1.2045                 1.0957
 Frc consts  --      1.4987                 1.5085                 1.4233
 IR Inten    --      1.5103                 7.5105                 1.9465

                     40                     41                     42
                      A                      A                      A
 Frequencies --   1504.7350              1701.8515              1706.5802
 Red. masses --      1.1279                 4.5478                 4.4764
 Frc consts  --      1.5046                 7.7607                 7.6813
 IR Inten    --      4.7722                17.6564                 9.2565

                     43                     44                     45
                      A                      A                      A
 Frequencies --   2988.7437              3027.9545              3034.4055
 Red. masses --      1.0827                 1.0831                 1.0646
 Frc consts  --      5.6984                 5.8507                 5.7756
 IR Inten    --     31.0670                30.7735                70.7900

                     46                     47                     48
                      A                      A                      A
 Frequencies --   3051.7527              3094.3233              3114.2162
 Red. masses --      1.0684                 1.0982                 1.1002
 Frc consts  --      5.8623                 6.1951                 6.2866
 IR Inten    --     66.0772                22.2407                32.1964

                     49                     50                     51
                      A                      A                      A
 Frequencies --   3119.9414              3134.3726              3139.4437
 Red. masses --      1.0846                 1.0837                 1.0634
 Frc consts  --      6.2202                 6.2730                 6.1751
 IR Inten    --      9.5943                11.9433                 5.5688

                     52                     53                     54
                      A                      A                      A
 Frequencies --   3147.6795              3218.5207              3226.6833
 Red. masses --      1.0649                 1.1151                 1.1149
 Frc consts  --      6.2164                 6.8057                 6.8389
 IR Inten    --      5.8492                11.4472                 6.3065

 - Thermochemistry -
 -------------------
 Temperature   298.150 Kelvin.  Pressure   1.00000 Atm.
 Atom     1 has atomic number  6 and mass  12.00000

 Molecular mass:   108.09390 amu.
 Principal axes and moments of inertia in atomic units:
                           1         2         3
     Eigenvalues --   646.224121063.738721371.36326
           X            0.11219   0.91699  -0.38280
           Y            0.21075   0.35451   0.91099
           Z            0.97108  -0.18288  -0.15348
 This molecule is an asymmetric top.
 Rotational symmetry number  1.
 Warning -- assumption of classical behavior for rotation
           may cause significant error
 Rotational temperatures (Kelvin)      0.13403     0.08142     0.06316
 Rotational constants (GHZ):           2.79275     1.69660     1.31602
 Zero-point vibrational energy     463348.2 (Joules/Mol)
                                  110.74287 (Kcal/Mol)
 Warning -- explicit consideration of  10 degrees of freedom as
           vibrations may cause significant error
 Vibrational temperatures:     92.04   134.01   158.76   297.02   361.32
          (Kelvin)            437.44   572.68   711.85   766.69   867.31
                              923.76  1055.22  1108.11  1168.92  1308.27
                             1346.49  1359.23  1362.49  1391.49  1409.58
                             1474.26  1485.46  1493.47  1526.24  1559.27
                             1613.05  1668.16  1732.73  1759.72  1809.11
                             1822.06  1829.76  1918.59  1930.43  1954.85
                             1982.74  2096.74  2097.72  2136.40  2164.98
                             2448.58  2455.39  4300.14  4356.55  4365.83
                             4390.79  4452.04  4480.66  4488.90  4509.66
                             4516.96  4528.81  4630.73  4642.48

 Zero-point correction=                           0.176480 (Hartree/Particle)
 Thermal correction to Energy=                    0.184931
 Thermal correction to Enthalpy=                  0.185876
 Thermal correction to Gibbs Free Energy=         0.143150
 Sum of electronic and zero-point Energies=           -311.941951
 Sum of electronic and thermal Energies=              -311.933500
 Sum of electronic and thermal Enthalpies=            -311.932555
 Sum of electronic and thermal Free Energies=         -311.975281

                     E (Thermal)             CV                S
                      KCal/Mol        Cal/Mol-Kelvin    Cal/Mol-Kelvin
 Total                  116.046             31.627             89.925
 Electronic               0.000              0.000              0.000
 Translational            0.889              2.981             39.950
 Rotational               0.889              2.981             28.335
 Vibrational            114.269             25.665             21.640
 Vibration     1          0.597              1.971              4.331
 Vibration     2          0.602              1.954              3.593
 Vibration     3          0.606              1.941              3.263
 Vibration     4          0.641              1.831              2.075
 Vibration     5          0.663              1.761              1.723
 Vibration     6          0.695              1.666              1.395
 Vibration     7          0.764              1.474              0.970
 Vibration     8          0.850              1.262              0.671
 Vibration     9          0.888              1.177              0.581
 Vibration    10          0.961              1.026              0.445

                       ! Non-Optimized Parameters !
 Normal termination of Gaussian 16 at Sat Jun 11 00:12:13 2022.
