 Gaussian 16, Revision A.03,
 Gaussian 16:  ES64L-G16RevA.03 25-Dec-2016

 ----------------------------------------------------------------------
 # Opt=(Z-matrix, MaxStep=10) B3LYP/Def2TZVP geom=allcheckpoint guess=r
 ead Field=read NoSymm freq=noraman pop=none
 ----------------------------------------------------------------------

 Structure from the checkpoint file:  "checkpoint.chk"
 ------------------
 int_zmat_initalOpt
 ------------------
 Charge =  0 Multiplicity = 1

 SCF Done:  E(RB3LYP) =  -312.120131379     A.U. after   10 cycles
 SCF Done:  E(RB3LYP) =  -312.119961463     A.U. after   11 cycles
 SCF Done:  E(RB3LYP) =  -312.120140272     A.U. after    9 cycles
 SCF Done:  E(RB3LYP) =  -312.120141435     A.U. after    7 cycles
 Optimization completed.
    -- Stationary point found.
 Normal termination of Gaussian 16 at Sat Jun 11 00:44:00 2022.

 --------------------------------------------------------------------
 #N Geom=AllCheck Guess=TCheck SCRF=Check GenChk RB3LYP/def2TZVP Freq
 --------------------------------------------------------------------

 Structure from the checkpoint file:  "checkpoint.chk"
 ------------------
 int_zmat_initalOpt
 ------------------
 Charge =  0 Multiplicity = 1

                          Input orientation:
 ---------------------------------------------------------------------
 Center     Atomic      Atomic             Coordinates (Angstroms)
 Number     Number       Type             X           Y           Z
 ---------------------------------------------------------------------
      1          6           0        0.000000    0.000000    0.000000
      2          6           0        0.000000    0.000000    1.587430
      3          6           0        1.357598    0.000000   -0.635650
      4          6           0       -0.761041   -1.349471    0.071018
      5          1           0       -0.576154    0.828342   -0.421302
      6          6           0       -0.303224   -1.514385    1.539568
      7          6           0        1.165381    0.542285    2.342907
      8          6           0        1.899828   -0.955021   -1.379904
      9          1           0       -1.839798   -1.197697   -0.010493
     10          1           0       -0.469581   -2.126187   -0.632851
     11          1           0       -0.900579    0.541719    1.903181
     12          1           0        1.929376    0.909784   -0.474626
     13          6           0        1.984302   -0.147573    3.128507
     14          1           0        1.348358    1.606496    2.211773
     15          1           0        0.609772   -2.106471    1.600817
     16          1           0       -1.024640   -1.905943    2.262483
     17          1           0        1.391250   -1.884606   -1.605216
     18          1           0        2.882581   -0.831574   -1.815221
     19          1           0        2.823480    0.326019    3.621267
     20          1           0        1.873705   -1.215700    3.275941
 ---------------------------------------------------------------------

 SCF Done:  E(RB3LYP) =  -312.120141435     A.U. after    1 cycles

 Isotropic polarizability for W=    0.000000       92.65 Bohr**3.
 End of Minotr F.D. properties file   721 does not exist.

                      1                      2                      3
                      A                      A                      A
 Frequencies --     63.6030                92.0108               109.5558
 Red. masses --      2.9149                 2.1559                 2.3510
 Frc consts  --      0.0069                 0.0108                 0.0166
 IR Inten    --      0.2680                 0.1086                 0.0649

                      4                      5                      6
                      A                      A                      A
 Frequencies --    206.3618               251.2174               303.6404
 Red. masses --      2.1534                 2.4639                 2.4245
 Frc consts  --      0.0540                 0.0916                 0.1317
 IR Inten    --      0.0301                 0.4303                 0.0968

                      7                      8                      9
                      A                      A                      A
 Frequencies --    398.5050               494.9247               532.8332
 Red. masses --      2.0298                 2.1452                 2.1225
 Frc consts  --      0.1899                 0.3096                 0.3550
 IR Inten    --      3.3509                 3.4992                 0.8341

                     10                     11                     12
                      A                      A                      A
 Frequencies --    602.8487               641.7521               732.4959
 Red. masses --      2.0051                 1.9945                 1.4978
 Frc consts  --      0.4293                 0.4840                 0.4735
 IR Inten    --      3.2861                 5.9647                 2.1544

                     13                     14                     15
                      A                      A                      A
 Frequencies --    770.0893               811.4143               908.4781
 Red. masses --      1.8165                 2.1894                 2.2169
 Frc consts  --      0.6347                 0.8493                 1.0780
 IR Inten    --      3.6198                 3.4513                 4.5533

                     16                     17                     18
                      A                      A                      A
 Frequencies --    935.1387               943.9683               946.1045
 Red. masses --      2.6208                 2.2410                 1.4112
 Frc consts  --      1.3503                 1.1765                 0.7442
 IR Inten    --      1.2305                 9.3567                41.2176

                     19                     20                     21
                      A                      A                      A
 Frequencies --    973.0641               979.6540              1023.6230
 Red. masses --      1.3134                 1.6945                 1.1912
 Frc consts  --      0.7327                 0.9582                 0.7354
 IR Inten    --     43.2760                 0.1767                 1.9782

                     22                     23                     24
                      A                      A                      A
 Frequencies --   1032.7678              1038.2187              1059.7201
 Red. masses --      1.1555                 1.1602                 1.8508
 Frc consts  --      0.7262                 0.7368                 1.2246
 IR Inten    --      7.1222                 7.1843                 3.7825

                     25                     26                     27
                      A                      A                      A
 Frequencies --   1083.5706              1120.3977              1158.5015
 Red. masses --      1.8067                 1.5509                 1.8104
 Frc consts  --      1.2498                 1.1470                 1.4316
 IR Inten    --      6.9713                 5.3503                 0.6225

                     28                     29                     30
                      A                      A                      A
 Frequencies --   1203.5518              1221.2412              1257.6021
 Red. masses --      1.3327                 1.2815                 1.3532
 Frc consts  --      1.1374                 1.1261                 1.2610
 IR Inten    --      3.1542                 1.2246                 0.6289

                     31                     32                     33
                      A                      A                      A
 Frequencies --   1264.7207              1270.1558              1333.5414
 Red. masses --      1.3469                 1.4470                 1.2990
 Frc consts  --      1.2693                 1.3754                 1.3611
 IR Inten    --      2.9099                 0.0196                 0.2989

                     34                     35                     36
                      A                      A                      A
 Frequencies --   1341.6098              1357.7987              1377.0493
 Red. masses --      1.2961                 1.4093                 1.6718
 Frc consts  --      1.3745                 1.5309                 1.8678
 IR Inten    --      0.2159                 3.0464                 4.9071

                     37                     38                     39
                      A                      A                      A
 Frequencies --   1457.5537              1458.2712              1483.2374
 Red. masses --      1.2057                 1.1945                 1.0970
 Frc consts  --      1.5092                 1.4967                 1.4219
 IR Inten    --      1.6051                 8.1698                 1.7046

                     40                     41                     42
                      A                      A                      A
 Frequencies --   1503.6170              1701.4668              1706.9513
 Red. masses --      1.1286                 4.5454                 4.4669
 Frc consts  --      1.5034                 7.7530                 7.6684
 IR Inten    --      4.8420                17.7547                 7.2826

                     43                     44                     45
                      A                      A                      A
 Frequencies --   2979.6607              3020.8653              3027.2271
 Red. masses --      1.0825                 1.0674                 1.0818
 Frc consts  --      5.6627                 5.7391                 5.8409
 IR Inten    --     38.1760                84.2879                34.1001

                     46                     47                     48
                      A                      A                      A
 Frequencies --   3046.3266              3093.0619              3114.1253
 Red. masses --      1.0710                 1.0953                 1.0984
 Frc consts  --      5.8559                 6.1737                 6.2758
 IR Inten    --     79.9936                20.9443                28.8438

                     49                     50                     51
                      A                      A                      A
 Frequencies --   3122.5219              3137.3366              3138.1674
 Red. masses --      1.0842                 1.0799                 1.0673
 Frc consts  --      6.2285                 6.2626                 6.1927
 IR Inten    --      8.9876                11.9070                 4.2446

                     52                     53                     54
                      A                      A                      A
 Frequencies --   3147.1697              3218.3112              3227.8928
 Red. masses --      1.0660                 1.1148                 1.1147
 Frc consts  --      6.2208                 6.8032                 6.8429
 IR Inten    --      6.7844                10.6100                 5.0243

 - Thermochemistry -
 -------------------
 Temperature   298.150 Kelvin.  Pressure   1.00000 Atm.
 Atom     1 has atomic number  6 and mass  12.00000

 Molecular mass:   108.09390 amu.
 Principal axes and moments of inertia in atomic units:
                           1         2         3
     Eigenvalues --   646.280501064.421881372.49296
           X            0.11166   0.91725  -0.38235
           Y            0.20856   0.35456   0.91148
           Z            0.97161  -0.18152  -0.15171
 This molecule is an asymmetric top.
 Rotational symmetry number  1.
 Warning -- assumption of classical behavior for rotation
           may cause significant error
 Rotational temperatures (Kelvin)      0.13402     0.08137     0.06311
 Rotational constants (GHZ):           2.79250     1.69551     1.31494
 Zero-point vibrational energy     463107.3 (Joules/Mol)
                                  110.68530 (Kcal/Mol)
 Warning -- explicit consideration of  10 degrees of freedom as
           vibrations may cause significant error
 Vibrational temperatures:     91.51   132.38   157.63   296.91   361.45
          (Kelvin)            436.87   573.36   712.09   766.63   867.36
                              923.34  1053.90  1107.99  1167.44  1307.10
                             1345.46  1358.16  1361.23  1400.02  1409.50
                             1472.77  1485.92  1493.77  1524.70  1559.02
                             1612.00  1666.83  1731.64  1757.09  1809.41
                             1819.65  1827.47  1918.67  1930.28  1953.57
                             1981.27  2097.09  2098.13  2134.05  2163.37
                             2448.03  2455.92  4287.07  4346.35  4355.50
                             4382.98  4450.23  4480.53  4492.61  4513.93
                             4515.12  4528.08  4630.43  4644.22

 Zero-point correction=                           0.176388 (Hartree/Particle)
 Thermal correction to Energy=                    0.184845
 Thermal correction to Enthalpy=                  0.185789
 Thermal correction to Gibbs Free Energy=         0.143038
 Sum of electronic and zero-point Energies=           -311.943753
 Sum of electronic and thermal Energies=              -311.935296
 Sum of electronic and thermal Enthalpies=            -311.934352
 Sum of electronic and thermal Free Energies=         -311.977104

                     E (Thermal)             CV                S
                      KCal/Mol        Cal/Mol-Kelvin    Cal/Mol-Kelvin
 Total                  115.992             31.636             89.979
 Electronic               0.000              0.000              0.000
 Translational            0.889              2.981             39.950
 Rotational               0.889              2.981             28.336
 Vibrational            114.215             25.675             21.692
 Vibration     1          0.597              1.972              4.342
 Vibration     2          0.602              1.955              3.617
 Vibration     3          0.606              1.942              3.277
 Vibration     4          0.641              1.831              2.076
 Vibration     5          0.663              1.761              1.722
 Vibration     6          0.695              1.667              1.397
 Vibration     7          0.765              1.473              0.968
 Vibration     8          0.851              1.261              0.671
 Vibration     9          0.888              1.177              0.581
 Vibration    10          0.961              1.026              0.445

                       ! Non-Optimized Parameters !
 Normal termination of Gaussian 16 at Sat Jun 11 00:53:47 2022.
