 Gaussian 16, Revision A.03,
 Gaussian 16:  ES64L-G16RevA.03 25-Dec-2016

 --------------------------
 # sp B3LYP/Def2TZVP NoSymm
 --------------------------

 ---------------------------
 ts_initalOpt_zmat_AlignedSp
 ---------------------------
 Symbolic Z-matrix:
 Charge =  0 Multiplicity = 1

                          Input orientation:
 ---------------------------------------------------------------------
 Center     Atomic      Atomic             Coordinates (Angstroms)
 Number     Number       Type             X           Y           Z
 ---------------------------------------------------------------------
      1          6           0        0.000000    0.000000    0.000000
      2          6           0        0.000000    0.000000    1.391636
      3          6           0        1.264361    0.000000   -0.850669
      4          1           0       -0.913347    0.312077   -0.493049
      5          6           0        1.388518   -1.480952   -1.251284
      6          6           0        1.070187   -0.366246    2.176523
      7          1           0       -0.971381    0.067316    1.873712
      8          1           0        1.150777    0.659995   -1.712687
      9          1           0        2.128474    0.360723   -0.289704
     10          6           0        0.176331   -2.103269   -0.568955
     11          1           0        2.084291   -0.290219    1.812979
     12          1           0        0.962458   -0.419484    3.251427
     13          1           0        1.342659   -1.628827   -2.331840
     14          1           0        2.320934   -1.934939   -0.910710
     15          6           0        0.234767   -2.800270    0.634136
     16          1           0       -0.697393   -2.263833   -1.189858
     17          6           0        1.267135   -2.715399    1.541052
     18          1           0       -0.693281   -3.249819    0.976397
     19          1           0        2.264577   -2.440641    1.231265
     20          1           0        1.197681   -3.225155    2.492464
 ---------------------------------------------------------------------

 SCF Done:  E(RB3LYP) =  -312.079788029     A.U. after   14 cycles

 Alpha  occ. eigenvalues --  -10.18167 -10.18167 -10.17162 -10.17143 -10.17029
 Alpha  occ. eigenvalues --  -10.17028 -10.16205 -10.16203  -0.83629  -0.77663
 Alpha  occ. eigenvalues --   -0.75856  -0.67516  -0.66398  -0.60185  -0.54911
 Alpha  occ. eigenvalues --   -0.50575  -0.50224  -0.46844  -0.46297  -0.43209
 Alpha  occ. eigenvalues --   -0.40280  -0.40237  -0.37798  -0.37211  -0.36331
 Alpha  occ. eigenvalues --   -0.33362  -0.32190  -0.31997  -0.24083  -0.21179
 Alpha virt. eigenvalues --   -0.03807   0.00481   0.03418   0.04141   0.06652
 Alpha virt. eigenvalues --    0.06911   0.07926   0.09342   0.10097   0.10843
 Alpha virt. eigenvalues --    0.11357   0.13379   0.14249   0.14623   0.14867

 Mulliken charges:
               1
     1  C   -0.091558
     2  C   -0.062581
     3  C   -0.153274
     4  H    0.102523
     5  C   -0.153410
     6  C   -0.290955
     7  H    0.088248
     8  H    0.086915
     9  H    0.088968
    10  C   -0.091355
    11  H    0.115891
    12  H    0.115808
    13  H    0.086920
    14  H    0.088980
    15  C   -0.062689
    16  H    0.102521
    17  C   -0.290896
    18  H    0.088256
    19  H    0.115883
    20  H    0.115807
 Sum of Mulliken charges =  -0.00000

 Dipole moment (field-independent basis, Debye):
    X=             -0.0940    Y=              0.1088    Z=             -0.4312  Tot=              0.4546
 Quadrupole moment (field-independent basis, Debye-Ang):
   XX=            -48.7134   YY=            -55.7812   ZZ=            -48.7326
   XY=              0.6673   XZ=              0.2225   YZ=             -1.4888

 Normal termination of Gaussian 16 at Fri Jun 10 22:24:20 2022.
