 Gaussian 16, Revision A.03,
 Gaussian 16:  ES64L-G16RevA.03 25-Dec-2016

 ----------------------------------------------------------------------
 # Opt=(TS, CalcFC, noeigentest, Z-matrix, MaxStep=10) geom=allcheckpoi
 nt guess=read Field=read NoSymm B3LYP/Def2TZVP freq=noraman pop=none
 ----------------------------------------------------------------------

 Structure from the checkpoint file:  "checkpoint.chk"
 -----------------
 ts_zmat_initalOpt
 -----------------
 Charge =  0 Multiplicity = 1

 SCF Done:  E(RB3LYP) =  -312.084977079     A.U. after   10 cycles
 SCF Done:  E(RB3LYP) =  -312.084987985     A.U. after   10 cycles
 SCF Done:  E(RB3LYP) =  -312.084988177     A.U. after    7 cycles
 Optimization completed.
    -- Stationary point found.
 Normal termination of Gaussian 16 at Sat Jun 11 00:56:24 2022.

 --------------------------------------------------------------------
 #N Geom=AllCheck Guess=TCheck SCRF=Check GenChk RB3LYP/def2TZVP Freq
 --------------------------------------------------------------------

 Structure from the checkpoint file:  "checkpoint.chk"
 -----------------
 ts_zmat_initalOpt
 -----------------
 Charge =  0 Multiplicity = 1

                          Input orientation:
 ---------------------------------------------------------------------
 Center     Atomic      Atomic             Coordinates (Angstroms)
 Number     Number       Type             X           Y           Z
 ---------------------------------------------------------------------
      1          6           0        0.000000    0.000000    0.000000
      2          6           0        0.000000    0.000000    1.391506
      3          6           0        1.263391    0.000000   -0.853081
      4          1           0       -0.910998    0.328030   -0.488387
      5          6           0        1.423395   -1.492460   -1.196258
      6          6           0        1.063745   -0.385398    2.174753
      7          1           0       -0.969080    0.095961    1.876662
      8          1           0        1.125898    0.618140   -1.739867
      9          1           0        2.119841    0.410553   -0.317938
     10          6           0        0.174602   -2.102618   -0.570468
     11          1           0        2.076902   -0.332685    1.805084
     12          1           0        0.965002   -0.413424    3.251787
     13          1           0        1.458256   -1.677443   -2.270656
     14          1           0        2.333698   -1.921541   -0.776655
     15          6           0        0.166492   -2.806558    0.630302
     16          1           0       -0.677572   -2.236686   -1.228616
     17          6           0        1.160635   -2.749952    1.585030
     18          1           0       -0.793873   -3.219358    0.937663
     19          1           0        2.181887   -2.522914    1.320333
     20          1           0        1.029133   -3.251122    2.535770
 ---------------------------------------------------------------------

 SCF Done:  E(RB3LYP) =  -312.084988177     A.U. after    1 cycles

 Isotropic polarizability for W=    0.000000      102.49 Bohr**3.
 End of Minotr F.D. properties file   721 does not exist.

 ******    1 imaginary frequencies (negative Signs) ******

                      1                      2                      3
                      A                      A                      A
 Frequencies --   -425.4471                62.3723               256.2536
 Red. masses --      8.1751                 2.0980                 2.6623
 Frc consts  --      0.8718                 0.0048                 0.1030
 IR Inten    --      1.4468                 0.0376                 0.3375

                      4                      5                      6
                      A                      A                      A
 Frequencies --    258.8809               281.4119               302.6599
 Red. masses --      4.0009                 3.0034                 3.3681
 Frc consts  --      0.1580                 0.1401                 0.1818
 IR Inten    --      1.2444                 0.7363                 0.7272

                      7                      8                      9
                      A                      A                      A
 Frequencies --    368.6895               422.6764               531.3117
 Red. masses --      2.2934                 2.2461                 2.2762
 Frc consts  --      0.1837                 0.2364                 0.3786
 IR Inten    --      2.7819                 2.2887                 2.3235

                     10                     11                     12
                      A                      A                      A
 Frequencies --    573.5757               655.8881               680.8371
 Red. masses --      2.0295                 2.5948                 1.3575
 Frc consts  --      0.3934                 0.6577                 0.3708
 IR Inten    --      0.7159                 3.8044                 0.2976

                     13                     14                     15
                      A                      A                      A
 Frequencies --    712.7554               759.1977               784.9928
 Red. masses --      1.3299                 1.0952                 1.3415
 Frc consts  --      0.3981                 0.3719                 0.4870
 IR Inten    --     24.2176                 8.5844                 5.9634

                     16                     17                     18
                      A                      A                      A
 Frequencies --    859.7897               899.2850               911.4781
 Red. masses --      1.4858                 1.1968                 2.3314
 Frc consts  --      0.6471                 0.5703                 1.1412
 IR Inten    --     13.3266                 2.6002                 2.9384

                     19                     20                     21
                      A                      A                      A
 Frequencies --    940.7691               959.2310               987.4428
 Red. masses --      1.5858                 1.4225                 1.4390
 Frc consts  --      0.8269                 0.7712                 0.8267
 IR Inten    --      1.8302                 6.7360                 5.7277

                     22                     23                     24
                      A                      A                      A
 Frequencies --    989.2570              1006.9924              1017.4951
 Red. masses --      1.4627                 1.7870                 1.3398
 Frc consts  --      0.8434                 1.0677                 0.8173
 IR Inten    --      2.0482                 3.0730                17.6891

                     25                     26                     27
                      A                      A                      A
 Frequencies --   1038.5372              1085.4399              1145.1539
 Red. masses --      1.4492                 1.9288                 1.2955
 Frc consts  --      0.9209                 1.3389                 1.0009
 IR Inten    --      1.0965                 5.2474                 0.4226

                     28                     29                     30
                      A                      A                      A
 Frequencies --   1179.7649              1222.3460              1263.9213
 Red. masses --      1.5907                 1.5117                 1.1411
 Frc consts  --      1.3045                 1.3308                 1.0740
 IR Inten    --      0.6298                 0.7186                 0.1539

                     31                     32                     33
                      A                      A                      A
 Frequencies --   1285.0197              1297.8899              1300.6660
 Red. masses --      1.4622                 1.3492                 1.3994
 Frc consts  --      1.4226                 1.3390                 1.3948
 IR Inten    --      0.7085                 1.2928                 1.3489

                     34                     35                     36
                      A                      A                      A
 Frequencies --   1329.6801              1426.6321              1430.3329
 Red. masses --      1.3940                 1.3436                 1.3410
 Frc consts  --      1.4522                 1.6112                 1.6165
 IR Inten    --      3.1576                 1.6291                 2.5205

                     37                     38                     39
                      A                      A                      A
 Frequencies --   1488.7213              1494.1660              1504.6280
 Red. masses --      1.2012                 2.3215                 1.4683
 Frc consts  --      1.5685                 3.0536                 1.9585
 IR Inten    --      3.6412                 3.5638                 0.5691

                     40                     41                     42
                      A                      A                      A
 Frequencies --   1511.2521              1557.8062              1609.3914
 Red. masses --      1.1290                 1.8988                 3.7638
 Frc consts  --      1.5192                 2.7149                 5.7438
 IR Inten    --     16.8529                 3.1330                 7.0299

                     43                     44                     45
                      A                      A                      A
 Frequencies --   3055.7578              3067.0363              3079.8312
 Red. masses --      1.0593                 1.0606                 1.0855
 Frc consts  --      5.8277                 5.8783                 6.0664
 IR Inten    --     26.7705                23.1767                37.9675

                     46                     47                     48
                      A                      A                      A
 Frequencies --   3086.6628              3103.1066              3109.2454
 Red. masses --      1.1036                 1.0869                 1.1035
 Frc consts  --      6.1952                 6.1664                 6.2854
 IR Inten    --      6.5850                26.8043                15.5787

                     49                     50                     51
                      A                      A                      A
 Frequencies --   3142.3139              3152.2359              3153.6301
 Red. masses --      1.0876                 1.0638                 1.0843
 Frc consts  --      6.3273                 6.2278                 6.3534
 IR Inten    --     23.9458                14.5812                41.2247

                     52                     53                     54
                      A                      A                      A
 Frequencies --   3160.8673              3234.4301              3246.4058
 Red. masses --      1.0643                 1.1147                 1.1122
 Frc consts  --      6.2652                 6.8706                 6.9062
 IR Inten    --     10.9263                 2.3829                16.8679

 - Thermochemistry -
 -------------------
 Temperature   298.150 Kelvin.  Pressure   1.00000 Atm.
 Atom     1 has atomic number  6 and mass  12.00000

 Molecular mass:   108.09390 amu.
 Principal axes and moments of inertia in atomic units:
                           1         2         3
     Eigenvalues --   722.74938 783.926921141.44106
           X           -0.05997  -0.06777   0.99590
           Y           -0.39114   0.91950   0.03902
           Z            0.91838   0.38720   0.08165
 This molecule is an asymmetric top.
 Rotational symmetry number  1.
 Warning -- assumption of classical behavior for rotation
           may cause significant error
 Rotational temperatures (Kelvin)      0.11984     0.11049     0.07588
 Rotational constants (GHZ):           2.49705     2.30218     1.58111
    1 imaginary frequencies ignored.
 Zero-point vibrational energy     460479.2 (Joules/Mol)
                                  110.05718 (Kcal/Mol)
 Warning -- explicit consideration of   9 degrees of freedom as
           vibrations may cause significant error
 Vibrational temperatures:     89.74   368.69   372.47   404.89   435.46
          (Kelvin)            530.46   608.14   764.44   825.25   943.68
                              979.57  1025.50  1092.32  1129.43  1237.05
                             1293.87  1311.41  1353.56  1380.12  1420.71
                             1423.32  1448.84  1463.95  1494.22  1561.71
                             1647.62  1697.42  1758.68  1818.50  1848.86
                             1867.37  1871.37  1913.11  2052.61  2057.93
                             2141.94  2149.77  2164.82  2174.35  2241.34
                             2315.56  4396.55  4412.78  4431.19  4441.02
                             4464.68  4473.51  4521.09  4535.36  4537.37
                             4547.78  4653.62  4670.85

 Zero-point correction=                           0.175387 (Hartree/Particle)
 Thermal correction to Energy=                    0.182997
 Thermal correction to Enthalpy=                  0.183941
 Thermal correction to Gibbs Free Energy=         0.143731
 Sum of electronic and zero-point Energies=           -311.909601
 Sum of electronic and thermal Energies=              -311.901992
 Sum of electronic and thermal Enthalpies=            -311.901047
 Sum of electronic and thermal Free Energies=         -311.941257

                     E (Thermal)             CV                S
                      KCal/Mol        Cal/Mol-Kelvin    Cal/Mol-Kelvin
 Total                  114.832             30.584             84.628
 Electronic               0.000              0.000              0.000
 Translational            0.889              2.981             39.950
 Rotational               0.889              2.981             27.961
 Vibrational            113.055             24.622             16.718
 Vibration     1          0.597              1.972              4.381
 Vibration     2          0.666              1.752              1.687
 Vibration     3          0.668              1.748              1.669
 Vibration     4          0.681              1.708              1.525
 Vibration     5          0.694              1.669              1.402
 Vibration     6          0.741              1.537              1.085
 Vibration     7          0.785              1.421              0.883
 Vibration     8          0.886              1.181              0.584
 Vibration     9          0.930              1.088              0.497

 Optimization completed.
    -- Stationary point found.
 Normal termination of Gaussian 16 at Sat Jun 11 01:06:13 2022.
