 Gaussian 16, Revision A.03,
 Gaussian 16:  ES64L-G16RevA.03 25-Dec-2016

 ----------------------------------------------------------------------
 # Opt=(TS, CalcFC, noeigentest, Z-matrix, MaxStep=10) geom=allcheckpoi
 nt guess=read Field=read NoSymm B3LYP/Def2TZVP freq=noraman pop=none
 ----------------------------------------------------------------------

 Structure from the checkpoint file:  "checkpoint.chk"
 -----------------
 ts_zmat_initalOpt
 -----------------
 Charge =  0 Multiplicity = 1

 SCF Done:  E(RB3LYP) =  -387.291454445     A.U. after   11 cycles
 SCF Done:  E(RB3LYP) =  -387.291486533     A.U. after   10 cycles
 Optimization completed.
    -- Stationary point found.
 Normal termination of Gaussian 16 at Fri Jun 10 23:51:59 2022.

 --------------------------------------------------------------------
 #N Geom=AllCheck Guess=TCheck SCRF=Check GenChk RB3LYP/def2TZVP Freq
 --------------------------------------------------------------------

 Structure from the checkpoint file:  "checkpoint.chk"
 -----------------
 ts_zmat_initalOpt
 -----------------
 Charge =  0 Multiplicity = 1

                          Input orientation:
 ---------------------------------------------------------------------
 Center     Atomic      Atomic             Coordinates (Angstroms)
 Number     Number       Type             X           Y           Z
 ---------------------------------------------------------------------
      1          1           0        0.000000    0.000000    0.000000
      2          6           0        0.000000    0.000000    1.095428
      3          6           0        1.367709    0.000000    1.619204
      4          8           0       -0.701672    1.187040    1.506157
      5          1           0       -0.557050   -0.881871    1.433553
      6          6           0       -0.033274    1.869973    2.582844
      7          6           0        2.611731    0.026932    1.503397
      8          6           0        0.619359    0.869454    3.485316
      9          1           0       -0.828250    2.411437    3.103350
     10          1           0        0.682010    2.601042    2.192869
     11          6           0        3.788354   -0.242758    0.642260
     12          6           0        1.797083    0.967499    4.199019
     13          1           0       -0.104957    0.162436    3.886247
     14          1           0        3.493776   -0.578800   -0.354452
     15          1           0        4.425047   -1.010488    1.087471
     16          1           0        4.404476    0.653387    0.538603
     17          6           0        2.979401    1.540623    3.696503
     18          1           0        1.920738    0.251101    5.005247
     19          1           0        2.925901    2.442371    3.093247
     20          1           0        3.083513    0.664642    2.684750
     21          1           0        3.870193    1.488488    4.312981
 ---------------------------------------------------------------------

 SCF Done:  E(RB3LYP) =  -387.291486533     A.U. after    1 cycles

 Isotropic polarizability for W=    0.000000      105.57 Bohr**3.
 End of Minotr F.D. properties file   721 does not exist.

 ******    1 imaginary frequencies (negative Signs) ******

                      1                      2                      3
                      A                      A                      A
 Frequencies --  -1177.5496               110.4392               122.9264
 Red. masses --      1.4620                 2.6812                 1.0895
 Frc consts  --      1.1945                 0.0193                 0.0097
 IR Inten    --      2.0704                 0.8764                 0.0410

                      4                      5                      6
                      A                      A                      A
 Frequencies --    154.0707               197.0993               212.0106
 Red. masses --      2.9983                 2.4339                 2.6184
 Frc consts  --      0.0419                 0.0557                 0.0693
 IR Inten    --      6.7323                 2.6740                 3.0352

                      7                      8                      9
                      A                      A                      A
 Frequencies --    260.7897               276.1634               354.1729
 Red. masses --      2.6432                 3.7612                 3.6395
 Frc consts  --      0.1059                 0.1690                 0.2690
 IR Inten    --      0.6591                 1.2635                 1.3115

                     10                     11                     12
                      A                      A                      A
 Frequencies --    410.2921               422.1554               484.0773
 Red. masses --      3.0731                 2.7887                 4.0127
 Frc consts  --      0.3048                 0.2928                 0.5540
 IR Inten    --      0.0974                 3.6091                 1.5182

                     13                     14                     15
                      A                      A                      A
 Frequencies --    567.8343               589.3488               647.5039
 Red. masses --      2.7229                 3.4558                 3.4165
 Frc consts  --      0.5173                 0.7072                 0.8439
 IR Inten    --      0.3872                 5.7010                 1.8258

                     16                     17                     18
                      A                      A                      A
 Frequencies --    719.3384               851.4695               856.8785
 Red. masses --      1.5295                 1.8878                 1.6407
 Frc consts  --      0.4663                 0.8064                 0.7098
 IR Inten    --     19.0743                 9.5425                19.3096

                     19                     20                     21
                      A                      A                      A
 Frequencies --    891.2117               959.7446              1015.2707
 Red. masses --      4.5606                 1.9220                 2.1857
 Frc consts  --      2.1342                 1.0431                 1.3274
 IR Inten    --     44.4940                11.6908                23.2341

                     22                     23                     24
                      A                      A                      A
 Frequencies --   1020.2933              1030.6895              1043.5599
 Red. masses --      1.6457                 1.5854                 2.2939
 Frc consts  --      1.0094                 0.9923                 1.4719
 IR Inten    --     14.4118                 3.5144                46.6659

                     25                     26                     27
                      A                      A                      A
 Frequencies --   1057.0902              1066.8168              1070.0438
 Red. masses --      1.4156                 1.4717                 1.6778
 Frc consts  --      0.9320                 0.9869                 1.1319
 IR Inten    --      5.9508                11.5480                 3.6991

                     28                     29                     30
                      A                      A                      A
 Frequencies --   1122.1531              1143.1456              1199.8076
 Red. masses --      1.9413                 2.5476                 1.3662
 Frc consts  --      1.4403                 1.9615                 1.1587
 IR Inten    --     10.1860                13.5045                 2.1573

                     31                     32                     33
                      A                      A                      A
 Frequencies --   1226.7100              1249.1987              1305.0645
 Red. masses --      1.2282                 1.1807                 1.0896
 Frc consts  --      1.0889                 1.0856                 1.0934
 IR Inten    --     13.4022                 9.6028                11.7367

                     34                     35                     36
                      A                      A                      A
 Frequencies --   1331.6472              1349.6084              1376.5067
 Red. masses --      1.2127                 1.2360                 1.3085
 Frc consts  --      1.2670                 1.3264                 1.4608
 IR Inten    --      2.6909                 4.8479                31.9597

                     37                     38                     39
                      A                      A                      A
 Frequencies --   1412.1125              1437.5761              1461.1712
 Red. masses --      1.2080                 1.1222                 1.2141
 Frc consts  --      1.4193                 1.3664                 1.5273
 IR Inten    --      3.7345                 2.8534                 0.4565

                     40                     41                     42
                      A                      A                      A
 Frequencies --   1480.0969              1486.9204              1506.9600
 Red. masses --      1.0432                 1.0446                 1.0932
 Frc consts  --      1.3465                 1.3607                 1.4627
 IR Inten    --      8.7798                10.6366                 0.1637

                     43                     44                     45
                      A                      A                      A
 Frequencies --   1514.0739              1517.6569              1621.1151
 Red. masses --      1.0958                 1.4806                 4.0263
 Frc consts  --      1.4801                 2.0093                 6.2343
 IR Inten    --      2.6829                 3.6464                22.8707

                     46                     47                     48
                      A                      A                      A
 Frequencies --   2047.5536              2989.1569              3013.0276
 Red. masses --      8.6071                 1.0601                 1.0605
 Frc consts  --     21.2607                 5.5806                 5.6724
 IR Inten    --     28.7287                83.4013                43.8078

                     49                     50                     51
                      A                      A                      A
 Frequencies --   3016.6952              3023.8120              3045.9762
 Red. masses --      1.0984                 1.0343                 1.1039
 Frc consts  --      5.8895                 5.5717                 6.0346
 IR Inten    --     41.8891                38.8894                34.1325

                     52                     53                     54
                      A                      A                      A
 Frequencies --   3082.6861              3084.8449              3103.6745
 Red. masses --      1.1002                 1.1026                 1.0859
 Frc consts  --      6.1602                 6.1818                 6.1628
 IR Inten    --      8.6669                14.6833                24.5339

                     55                     56                     57
                      A                      A                      A
 Frequencies --   3109.7330              3144.1626              3187.7540
 Red. masses --      1.0588                 1.0897                 1.1104
 Frc consts  --      6.0327                 6.3469                 6.6484
 IR Inten    --      6.6459                 9.3379                 6.6062

 - Thermochemistry -
 -------------------
 Temperature   298.150 Kelvin.  Pressure   1.00000 Atm.
 Atom     1 has atomic number  1 and mass   1.00783

 Molecular mass:   124.08882 amu.
 Principal axes and moments of inertia in atomic units:
                           1         2         3
     Eigenvalues --   907.515821207.222131877.09411
           X            0.95654   0.23353   0.17462
           Y           -0.25325   0.36844   0.89449
           Z           -0.14456   0.89984  -0.41157
 This molecule is an asymmetric top.
 Rotational symmetry number  1.
 Warning -- assumption of classical behavior for rotation
           may cause significant error
 Rotational temperatures (Kelvin)      0.09544     0.07175     0.04614
 Rotational constants (GHZ):           1.98866     1.49495     0.96145
    1 imaginary frequencies ignored.
 Zero-point vibrational energy     460454.0 (Joules/Mol)
                                  110.05114 (Kcal/Mol)
 Warning -- explicit consideration of  13 degrees of freedom as
           vibrations may cause significant error
 Vibrational temperatures:    158.90   176.86   221.67   283.58   305.04
          (Kelvin)            375.22   397.34   509.58   590.32   607.39
                              696.48   816.99   847.94   931.61  1034.97
                             1225.07  1232.86  1282.25  1380.86  1460.75
                             1467.97  1482.93  1501.45  1520.92  1534.91
                             1539.55  1614.53  1644.73  1726.26  1764.96
                             1797.32  1877.70  1915.94  1941.79  1980.49
                             2031.71  2068.35  2102.30  2129.53  2139.35
                             2168.18  2178.41  2183.57  2332.42  2945.97
                             4300.73  4335.07  4340.35  4350.59  4382.48
                             4435.30  4438.40  4465.50  4474.21  4523.75
                             4586.47

 Zero-point correction=                           0.175378 (Hartree/Particle)
 Thermal correction to Energy=                    0.184669
 Thermal correction to Enthalpy=                  0.185613
 Thermal correction to Gibbs Free Energy=         0.141584
 Sum of electronic and zero-point Energies=           -387.116109
 Sum of electronic and thermal Energies=              -387.106817
 Sum of electronic and thermal Enthalpies=            -387.105873
 Sum of electronic and thermal Free Energies=         -387.149903

                     E (Thermal)             CV                S
                      KCal/Mol        Cal/Mol-Kelvin    Cal/Mol-Kelvin
 Total                  115.882             35.164             92.668
 Electronic               0.000              0.000              0.000
 Translational            0.889              2.981             40.361
 Rotational               0.889              2.981             29.110
 Vibrational            114.104             29.203             23.197
 Vibration     1          0.606              1.941              3.261
 Vibration     2          0.610              1.930              3.054
 Vibration     3          0.620              1.898              2.621
 Vibration     4          0.636              1.844              2.160
 Vibration     5          0.643              1.823              2.026
 Vibration     6          0.669              1.744              1.656
 Vibration     7          0.678              1.717              1.557
 Vibration     8          0.730              1.567              1.148
 Vibration     9          0.774              1.448              0.926
 Vibration    10          0.784              1.422              0.885
 Vibration    11          0.840              1.285              0.699
 Vibration    12          0.924              1.101              0.508
 Vibration    13          0.947              1.054              0.468

 Optimization completed.
    -- Stationary point found.

 1\1\GINC-BHC0068\Freq\RB3LYP\def2TZVP\C8H12O1\DHANAWAY\11-Jun-2022\1\\
 #N Geom=AllCheck Guess=TCheck SCRF=Check GenChk RB3LYP/def2TZVP Freq\\
 ts_zmat_initalOpt\\0,1\H\C,1,R2\C,2,R3,1,A3\O,2,R4,1,A4,3,D4,0\H,2,R5,
 1,A5,3,D5,0\C,4,R6,2,A6,1,D6,0\C,3,R7,2,A7,1,D7,0\C,6,R8,4,A8,2,D8,0\H
 ,6,R9,4,A9,8,D9,0\H,6,R10,4,A10,8,D10,0\C,7,R11,3,A11,2,D11,0\C,8,R12,
 6,A12,4,D12,0\H,8,R13,6,A13,12,D13,0\H,11,R14,7,A14,3,D14,0\H,11,R15,7
 ,A15,14,D15,0\H,11,R16,7,A16,14,D16,0\C,12,R17,8,A17,6,D17,0\H,12,R18,
 8,A18,17,D18,0\H,17,R19,12,A19,8,D19,0\H,17,R20,12,A20,19,D20,0\H,17,R

 Normal termination of Gaussian 16 at Sat Jun 11 00:04:28 2022.
