 Gaussian 16, Revision A.03,
 Gaussian 16:  ES64L-G16RevA.03 25-Dec-2016

 ----------------------------------------------------------------------
 # Opt=(Z-matrix, MaxStep=10) B3LYP/Def2TZVP geom=allcheckpoint guess=r
 ead Field=read NoSymm
 ----------------------------------------------------------------------

 Structure from the checkpoint file:  "checkpoint.chk"
 ------------------
 int_zmat_initalOpt
 ------------------
 Charge =  0 Multiplicity = 1

 SCF Done:  E(RB3LYP) =  -269.423600404     A.U. after   10 cycles
 SCF Done:  E(RB3LYP) =  -269.423609650     A.U. after    8 cycles
 SCF Done:  E(RB3LYP) =  -269.423614171     A.U. after    8 cycles
 SCF Done:  E(RB3LYP) =  -269.423615920     A.U. after    8 cycles
 SCF Done:  E(RB3LYP) =  -269.423616613     A.U. after    8 cycles
 Optimization completed.
    -- Stationary point found.

                         Z-Matrix orientation:
 ---------------------------------------------------------------------
 Center     Atomic      Atomic             Coordinates (Angstroms)
 Number     Number       Type             X           Y           Z
 ---------------------------------------------------------------------
      1          6           0        0.000000    0.000000    0.000000
      2          6           0        0.000000    0.000000    1.335708
      3          6           0        1.268618    0.000000   -0.712437
      4          1           0       -0.924745    0.070053   -0.559333
      5          1           0       -0.908001    0.072746    1.919449
      6          1           0        1.315777   -0.107034   -1.786455
      7          6           0        2.381376    0.289493   -0.021021
      8          6           0        1.311943   -0.126660    2.054551
      9          1           0        3.347923    0.477969   -0.472016
     10          8           0        2.399936    0.479623    1.314012
     11          1           0        1.305906    0.377056    3.019001
     12          1           0        1.572535   -1.182846    2.222239
 ---------------------------------------------------------------------

 Alpha  occ. eigenvalues --  -19.16016 -10.23402 -10.22732 -10.17668 -10.17026
 Alpha  occ. eigenvalues --  -10.17014  -1.06971  -0.81297  -0.77397  -0.66474
 Alpha  occ. eigenvalues --   -0.62621  -0.53384  -0.50779  -0.48595  -0.46177
 Alpha  occ. eigenvalues --   -0.43778  -0.40698  -0.37855  -0.35971  -0.32960
 Alpha  occ. eigenvalues --   -0.30126  -0.20982
 Alpha virt. eigenvalues --   -0.03285   0.04365   0.05553   0.07297   0.07992
 Alpha virt. eigenvalues --    0.09387   0.09899   0.11288   0.13359   0.16546
 Alpha virt. eigenvalues --    0.17528   0.19589   0.20988   0.22247   0.23228

 Mulliken charges:
               1
     1  C   -0.099055
     2  C   -0.172172
     3  C   -0.157948
     4  H    0.110574
     5  H    0.136866
     6  H    0.084796
     7  C    0.025998
     8  C    0.028369
     9  H    0.098455
    10  O   -0.265351
    11  H    0.132698
    12  H    0.076770
 Sum of Mulliken charges =  -0.00000

 Dipole moment (field-independent basis, Debye):
    X=             -0.9641    Y=             -0.2427    Z=              0.8102  Tot=              1.2825
 Quadrupole moment (field-independent basis, Debye-Ang):
   XX=            -36.8647   YY=            -38.6828   ZZ=            -30.8506
   XY=             -0.7005   XZ=             -1.6259   YZ=             -0.8401

 Normal termination of Gaussian 16 at Fri Mar 18 14:27:13 2022.
