 Gaussian 16, Revision A.03,
 Gaussian 16:  ES64L-G16RevA.03 25-Dec-2016

 ----------------------------------------------------------------------
 # Opt=(TS, CalcFC, noeigentest, Z-matrix, MaxStep=10) geom=allcheckpoi
 nt guess=read Field=read NoSymm B3LYP/Def2TZVP freq=noraman pop=none
 ----------------------------------------------------------------------

 Structure from the checkpoint file:  "checkpoint.chk"
 -----------------
 ts_zmat_initalOpt
 -----------------
 Charge =  0 Multiplicity = 1

 SCF Done:  E(RB3LYP) =  -269.398277342     A.U. after   10 cycles
 SCF Done:  E(RB3LYP) =  -269.398299538     A.U. after   12 cycles
 Optimization completed.
    -- Stationary point found.
 Normal termination of Gaussian 16 at Fri Jun 10 12:08:27 2022.

 --------------------------------------------------------------------
 #N Geom=AllCheck Guess=TCheck SCRF=Check GenChk RB3LYP/def2TZVP Freq
 --------------------------------------------------------------------

 Structure from the checkpoint file:  "checkpoint.chk"
 -----------------
 ts_zmat_initalOpt
 -----------------
 Charge =  0 Multiplicity = 1

                          Input orientation:
 ---------------------------------------------------------------------
 Center     Atomic      Atomic             Coordinates (Angstroms)
 Number     Number       Type             X           Y           Z
 ---------------------------------------------------------------------
      1          6           0        0.000000    0.000000    0.000000
      2          6           0        0.000000    0.000000    1.382155
      3          6           0        1.211853    0.000000   -0.713068
      4          1           0       -0.922195    0.153443   -0.550376
      5          1           0       -0.825443    0.415980    1.945427
      6          1           0        1.196586    0.002232   -1.794012
      7          6           0        2.366923    0.495333   -0.094108
      8          6           0        1.171328   -0.418454    2.013786
      9          1           0        3.066706    1.028389   -0.750189
     10          8           0        2.643840    0.540219    1.145143
     11          1           0        1.334129   -0.213469    3.064735
     12          1           0        1.665321   -1.304536    1.638794
 ---------------------------------------------------------------------

 SCF Done:  E(RB3LYP) =  -269.398299538     A.U. after    1 cycles

 Isotropic polarizability for W=    0.000000       65.01 Bohr**3.
 End of Minotr F.D. properties file   721 does not exist.

 ******    1 imaginary frequencies (negative Signs) ******

                      1                      2                      3
                      A                      A                      A
 Frequencies --   -533.9472               248.3870               372.7447
 Red. masses --      5.6594                 2.8824                 2.5761
 Frc consts  --      0.9506                 0.1048                 0.2109
 IR Inten    --     42.6041                 5.0509                11.5797

                      4                      5                      6
                      A                      A                      A
 Frequencies --    423.3092               572.4836               591.0911
 Red. masses --      4.2364                 2.9532                 3.3924
 Frc consts  --      0.4473                 0.5703                 0.6983
 IR Inten    --      5.4406                22.5080                 6.0616

                      7                      8                      9
                      A                      A                      A
 Frequencies --    726.4015               795.4576               883.2143
 Red. masses --      1.2595                 1.3872                 2.0071
 Frc consts  --      0.3916                 0.5172                 0.9225
 IR Inten    --     43.7635                23.5017                18.9888

                     10                     11                     12
                      A                      A                      A
 Frequencies --    946.3038               959.4304               983.4931
 Red. masses --      1.6540                 1.4624                 1.4207
 Frc consts  --      0.8726                 0.7931                 0.8096
 IR Inten    --     36.3885                18.0942                 8.8594

                     13                     14                     15
                      A                      A                      A
 Frequencies --   1019.8661              1044.0548              1100.8980
 Red. masses --      3.5134                 1.7417                 1.3439
 Frc consts  --      2.1531                 1.1186                 0.9596
 IR Inten    --      8.2069                 7.4831                18.8390

                     16                     17                     18
                      A                      A                      A
 Frequencies --   1120.9844              1179.5033              1244.5738
 Red. masses --      1.5796                 1.2274                 1.3479
 Frc consts  --      1.1695                 1.0060                 1.2301
 IR Inten    --      2.8638                15.2471                 3.5184

                     19                     20                     21
                      A                      A                      A
 Frequencies --   1335.5284              1409.3063              1437.7942
 Red. masses --      1.3934                 1.7816                 1.8993
 Frc consts  --      1.4644                 2.0848                 2.3133
 IR Inten    --     48.3073                51.8696                65.7193

                     22                     23                     24
                      A                      A                      A
 Frequencies --   1494.1520              1548.9833              1613.6125
 Red. masses --      1.7145                 2.1751                 5.2981
 Frc consts  --      2.2552                 3.0749                 8.1277
 IR Inten    --     10.2392                21.2732               124.3427

                     25                     26                     27
                      A                      A                      A
 Frequencies --   3013.1024              3137.2906              3161.8521
 Red. masses --      1.0846                 1.0568                 1.0878
 Frc consts  --      5.8016                 6.1285                 6.4075
 IR Inten    --     67.3372                20.1828                 1.3771

                     28                     29                     30
                      A                      A                      A
 Frequencies --   3183.5514              3201.0131              3220.8492
 Red. masses --      1.0935                 1.0919                 1.1173
 Frc consts  --      6.5297                 6.5920                 6.8290
 IR Inten    --      2.3130                 3.8592                 7.8025

 - Thermochemistry -
 -------------------
 Temperature   298.150 Kelvin.  Pressure   1.00000 Atm.
 Atom     1 has atomic number  6 and mass  12.00000

 Molecular mass:    82.04186 amu.
 Principal axes and moments of inertia in atomic units:
                           1         2         3
     Eigenvalues --   324.46906 386.07083 664.07565
           X            0.93223   0.30043  -0.20170
           Y            0.22689  -0.05106   0.97258
           Z           -0.28190   0.95243   0.11577
 This molecule is an asymmetric top.
 Rotational symmetry number  1.
 Rotational temperatures (Kelvin)      0.26694     0.22435     0.13043
 Rotational constants (GHZ):           5.56214     4.67464     2.71767
    1 imaginary frequencies ignored.
 Zero-point vibrational energy     251031.8 (Joules/Mol)
                                   59.99803 (Kcal/Mol)
 Warning -- explicit consideration of   5 degrees of freedom as
           vibrations may cause significant error
 Vibrational temperatures:    357.37   536.30   609.05   823.68   850.45
          (Kelvin)           1045.13  1144.49  1270.75  1361.52  1380.41
                             1415.03  1467.36  1502.16  1583.95  1612.85
                             1697.04  1790.66  1921.53  2027.68  2068.67
                             2149.75  2228.64  2321.63  4335.18  4513.86
                             4549.20  4580.42  4605.54  4634.08

 Zero-point correction=                           0.095613 (Hartree/Particle)
 Thermal correction to Energy=                    0.100447
 Thermal correction to Enthalpy=                  0.101391
 Thermal correction to Gibbs Free Energy=         0.067601
 Sum of electronic and zero-point Energies=           -269.302687
 Sum of electronic and thermal Energies=              -269.297853
 Sum of electronic and thermal Enthalpies=            -269.296908
 Sum of electronic and thermal Free Energies=         -269.330699

                     E (Thermal)             CV                S
                      KCal/Mol        Cal/Mol-Kelvin    Cal/Mol-Kelvin
 Total                   63.031             18.179             71.118
 Electronic               0.000              0.000              0.000
 Translational            0.889              2.981             39.128
 Rotational               0.889              2.981             25.923
 Vibrational             61.254             12.218              6.067
 Vibration     1          0.662              1.765              1.742
 Vibration     2          0.744              1.528              1.068
 Vibration     3          0.785              1.420              0.881
 Vibration     4          0.929              1.091              0.499
 Vibration     5          0.949              1.051              0.465

 Optimization completed.
    -- Stationary point found.
 Normal termination of Gaussian 16 at Fri Jun 10 12:11:15 2022.
