 Gaussian 16, Revision A.03,
 Gaussian 16:  ES64L-G16RevA.03 25-Dec-2016

 ----------------------------------------------------------------------
 # Opt=(Z-matrix, MaxStep=10) B3LYP/Def2TZVP geom=allcheckpoint guess=r
 ead Field=read NoSymm
 ----------------------------------------------------------------------

 Structure from the checkpoint file:  "checkpoint.chk"
 ------------------
 int_zmat_initalOpt
 ------------------
 Charge =  0 Multiplicity = 1

 SCF Done:  E(RB3LYP) =  -269.425863404     A.U. after   10 cycles
 SCF Done:  E(RB3LYP) =  -269.425793146     A.U. after   11 cycles
 SCF Done:  E(RB3LYP) =  -269.425879915     A.U. after    9 cycles
 SCF Done:  E(RB3LYP) =  -269.425887038     A.U. after    9 cycles
 SCF Done:  E(RB3LYP) =  -269.425890519     A.U. after    9 cycles
 SCF Done:  E(RB3LYP) =  -269.425893024     A.U. after    8 cycles
 SCF Done:  E(RB3LYP) =  -269.425894247     A.U. after    8 cycles
 SCF Done:  E(RB3LYP) =  -269.425894786     A.U. after    7 cycles
 SCF Done:  E(RB3LYP) =  -269.425894959     A.U. after    7 cycles
 Optimization completed.
    -- Stationary point found.

                         Z-Matrix orientation:
 ---------------------------------------------------------------------
 Center     Atomic      Atomic             Coordinates (Angstroms)
 Number     Number       Type             X           Y           Z
 ---------------------------------------------------------------------
      1          1           0        0.000000    0.000000    0.000000
      2          6           0        0.000000    0.000000    1.082150
      3          6           0        1.127560    0.000000    1.795649
      4          6           0       -1.321054   -0.080549    1.787906
      5          1           0        2.094626    0.041242    1.311683
      6          6           0        1.050461    0.038088    3.249165
      7          8           0       -1.284170    0.467316    3.128390
      8          1           0       -2.094130    0.482837    1.266857
      9          1           0       -1.662139   -1.127644    1.867322
     10          1           0        1.939720   -0.017850    3.860092
     11          6           0       -0.130637    0.309422    3.818990
     12          1           0       -0.263347    0.519650    4.873282
 ---------------------------------------------------------------------

 Alpha  occ. eigenvalues --  -19.19675 -10.26816 -10.26654 -10.20409 -10.20296
 Alpha  occ. eigenvalues --  -10.20028  -1.10456  -0.84378  -0.80974  -0.69837
 Alpha  occ. eigenvalues --   -0.66017  -0.56668  -0.53914  -0.51952  -0.49871
 Alpha  occ. eigenvalues --   -0.46838  -0.44090  -0.40992  -0.39565  -0.36233
 Alpha  occ. eigenvalues --   -0.33646  -0.24106
 Alpha virt. eigenvalues --   -0.06443   0.00667   0.01456   0.04232   0.04587
 Alpha virt. eigenvalues --    0.05472   0.07015   0.08395   0.10759   0.12770
 Alpha virt. eigenvalues --    0.13974   0.15742   0.17610   0.18771   0.20098

 Mulliken charges:
               1
     1  H    0.151993
     2  C   -0.163288
     3  C   -0.117412
     4  C    0.040423
     5  H    0.147832
     6  C   -0.155792
     7  O   -0.280250
     8  H    0.136032
     9  H    0.036457
    10  H    0.101359
    11  C    0.019503
    12  H    0.083142
 Sum of Mulliken charges =  -0.00000

 Dipole moment (field-independent basis, Debye):
    X=              0.6705    Y=              0.3060    Z=             -1.7907  Tot=              1.9364
 Quadrupole moment (field-independent basis, Debye-Ang):
   XX=            -34.3671   YY=            -38.6823   ZZ=            -40.8064
   XY=              0.6583   XZ=              3.7070   YZ=              0.8653

 Normal termination of Gaussian 16 at Fri Mar 18 11:13:14 2022.
