 Gaussian 16, Revision A.03,
 Gaussian 16:  ES64L-G16RevA.03 25-Dec-2016

 --------------------------
 # sp B3LYP/Def2TZVP NoSymm
 --------------------------

 ---------------------------------
 ts_initalOptXYZ_aligned_AlignedSp
 ---------------------------------
 Symbolic Z-matrix:
 Charge =  0 Multiplicity = 1

                          Input orientation:
 ---------------------------------------------------------------------
 Center     Atomic      Atomic             Coordinates (Angstroms)
 Number     Number       Type             X           Y           Z
 ---------------------------------------------------------------------
      1          6           0       -1.354451   -0.315558    0.308431
      2          6           0       -0.137084   -1.043153   -0.196596
      3          6           0       -1.156494    1.049046   -0.169383
      4          1           0       -1.460350   -0.389820    1.393698
      5          1           0       -2.237876   -0.779037   -0.145285
      6          1           0       -0.970844    1.879931    0.493026
      7          1           0       -1.174537    1.240237   -1.232649
      8          6           0        1.160718   -0.582766   -0.014908
      9          1           0       -0.292088   -1.991357   -0.705041
     10          6           0        1.587615    0.715975    0.073677
     11          1           0        1.912314   -1.367253    0.104545
     12          1           0        1.109440    1.495412   -0.495258
     13          1           0        2.512119    0.970619    0.579631
 ---------------------------------------------------------------------

 SCF Done:  E(RB3LYP) =  -195.276143919     A.U. after   15 cycles

 Alpha  occ. eigenvalues --  -10.18740 -10.18600 -10.18469 -10.17559 -10.16489
 Alpha  occ. eigenvalues --   -0.82368  -0.75245  -0.67093  -0.60108  -0.53463
 Alpha  occ. eigenvalues --   -0.48758  -0.46778  -0.42583  -0.41454  -0.39516
 Alpha  occ. eigenvalues --   -0.36521  -0.35512  -0.27342  -0.18396
 Alpha virt. eigenvalues --   -0.08327   0.01288   0.04902   0.06719   0.07387
 Alpha virt. eigenvalues --    0.08207   0.10560   0.11562   0.13789   0.14193
 Alpha virt. eigenvalues --    0.17698   0.19088   0.19569   0.20430   0.22977

 Mulliken charges:
               1
     1  C   -0.070737
     2  C   -0.171230
     3  C   -0.344080
     4  H    0.098588
     5  H    0.106794
     6  H    0.143017
     7  H    0.140340
     8  C   -0.044747
     9  H    0.103279
    10  C   -0.312267
    11  H    0.105543
    12  H    0.138317
    13  H    0.107184
 Sum of Mulliken charges =  -0.00000

 Dipole moment (field-independent basis, Debye):
    X=             -0.5128    Y=             -0.3318    Z=             -0.0067  Tot=              0.6108
 Quadrupole moment (field-independent basis, Debye-Ang):
   XX=            -32.3777   YY=            -31.0982   ZZ=            -33.4117
   XY=              0.5427   XZ=              0.9026   YZ=              0.2521

 Normal termination of Gaussian 16 at Fri Jun 10 02:26:44 2022.
