 Gaussian 16, Revision A.03,
 Gaussian 16:  ES64L-G16RevA.03 25-Dec-2016

 --------------------------
 # sp B3LYP/Def2TZVP NoSymm
 --------------------------

 ---------------------------------
 ts_initalOptXYZ_aligned_AlignedSp
 ---------------------------------
 Symbolic Z-matrix:
 Charge =  0 Multiplicity = 1

                          Input orientation:
 ---------------------------------------------------------------------
 Center     Atomic      Atomic             Coordinates (Angstroms)
 Number     Number       Type             X           Y           Z
 ---------------------------------------------------------------------
      1          6           0        0.556135    1.064926    0.004904
      2          6           0       -0.822083    0.872407   -0.004122
      3          6           0       -1.054914   -0.503437   -0.015857
      4          7           0        0.090759   -1.214346   -0.080367
      5          6           0        1.139062   -0.208206   -0.021020
      6          1           0        2.147087   -0.499251   -0.274042
      7          1           0        1.084881    2.004755    0.023577
      8          1           0       -1.577130    1.643546    0.024648
      9          1           0       -2.001850   -1.017695    0.052466
     10          1           0        0.802505   -0.985074    0.952486
 ---------------------------------------------------------------------

 SCF Done:  E(RB3LYP) =  -210.175709852     A.U. after   13 cycles

 Alpha  occ. eigenvalues --  -14.34125 -10.21670 -10.19481 -10.18050 -10.17778
 Alpha  occ. eigenvalues --   -0.97753  -0.77581  -0.73519  -0.58564  -0.56295
 Alpha  occ. eigenvalues --   -0.52621  -0.47542  -0.40877  -0.40248  -0.39979
 Alpha  occ. eigenvalues --   -0.30272  -0.28330  -0.25349
 Alpha virt. eigenvalues --   -0.01105   0.01723   0.05429   0.07031   0.08687
 Alpha virt. eigenvalues --    0.09004   0.09941   0.13859   0.15856   0.17736
 Alpha virt. eigenvalues --    0.19506   0.21428   0.22598   0.23806   0.24482

 Mulliken charges:
               1
     1  C   -0.176388
     2  C   -0.089239
     3  C   -0.107700
     4  N   -0.284263
     5  C   -0.071852
     6  H    0.150845
     7  H    0.120825
     8  H    0.114929
     9  H    0.115944
    10  H    0.226900
 Sum of Mulliken charges =  -0.00000

 Dipole moment (field-independent basis, Debye):
    X=              0.3881    Y=              1.2417    Z=              0.6959  Tot=              1.4754
 Quadrupole moment (field-independent basis, Debye-Ang):
   XX=            -25.8440   YY=            -31.5544   ZZ=            -31.9654
   XY=             -0.1513   XZ=             -0.0587   YZ=             -1.1324

 Normal termination of Gaussian 16 at Fri Jun 10 01:43:36 2022.
