 Gaussian 16, Revision A.03,
 Gaussian 16:  ES64L-G16RevA.03 25-Dec-2016

 ----------------------------------------------------------------------
 # Opt=(TS, CalcFC, noeigentest, Z-matrix, MaxStep=10) geom=allcheckpoi
 nt guess=read Field=read NoSymm B3LYP/Def2TZVP freq=noraman pop=none
 ----------------------------------------------------------------------

 Structure from the checkpoint file:  "checkpoint.chk"
 -----------------
 ts_zmat_initalOpt
 -----------------
 Charge =  0 Multiplicity = 1

 SCF Done:  E(RB3LYP) =  -439.149453788     A.U. after   11 cycles
 SCF Done:  E(RB3LYP) =  -439.149486175     A.U. after   13 cycles
 SCF Done:  E(RB3LYP) =  -439.149490417     A.U. after    9 cycles
 SCF Done:  E(RB3LYP) =  -439.149491399     A.U. after    8 cycles
 SCF Done:  E(RB3LYP) =  -439.149491659     A.U. after    8 cycles
 SCF Done:  E(RB3LYP) =  -439.149491952     A.U. after    7 cycles
 Optimization completed.
    -- Stationary point found.

 1\1\GINC-BHC0108\FTS\RB3LYP\def2TZVP\C8H7N1O1\DHANAWAY\11-Jun-2022\1\\
 # Opt=(TS, CalcFC, noeigentest, Z-matrix, MaxStep=10) geom=allcheckpoi
 nt guess=read Field=read NoSymm B3LYP/Def2TZVP freq=noraman pop=none\\
 ts_zmat_initalOpt\\0,1\H\N,1,R2\C,2,R3,1,A3\C,2,R4,1,A4,3,D4,0\H,3,R5,
 2,A5,1,D5,0\C,3,R6,2,A6,5,D6,0\C,4,R7,2,A7,1,D7,0\C,4,R8,2,A8,7,D8,0\H
 ,6,R9,3,A9,2,D9,0\H,8,R10,4,A10,2,D10,0\H,7,R11,4,A11,2,D11,0\C,8,R12,
 4,A12,10,D12,0\H,12,R13,8,A13,4,D13,0\C,12,R14,8,A14,13,D14,0\H,14,R15
 ,12,A15,8,D15,0\C,14,R16,12,A16,15,D16,0\O,16,R17,14,A17,12,D17,0\\R2=

 Normal termination of Gaussian 16 at Sat Jun 11 00:32:50 2022.

 --------------------------------------------------------------------
 #N Geom=AllCheck Guess=TCheck SCRF=Check GenChk RB3LYP/def2TZVP Freq
 --------------------------------------------------------------------

 Structure from the checkpoint file:  "checkpoint.chk"
 -----------------
 ts_zmat_initalOpt
 -----------------
 Charge =  0 Multiplicity = 1

                          Input orientation:
 ---------------------------------------------------------------------
 Center     Atomic      Atomic             Coordinates (Angstroms)
 Number     Number       Type             X           Y           Z
 ---------------------------------------------------------------------
      1          1           0        0.000000    0.000000    0.000000
      2          7           0        0.000000    0.000000    1.007739
      3          6           0        1.124074    0.000000    1.815425
      4          6           0       -1.126225    0.019104    1.765157
      5          1           0        2.110637   -0.009453    1.383653
      6          6           0        0.719714    0.001957    3.114991
      7          6           0       -0.719744    0.010155    3.118287
      8          6           0       -2.460080   -0.114652    1.288268
      9          1           0        1.368476    0.023507    3.973948
     10          1           0       -2.720393    0.208624    0.289124
     11          1           0       -1.303396    0.513546    3.877345
     12          6           0       -3.359792   -0.801884    2.041909
     13          1           0       -4.348602   -0.953536    1.623711
     14          6           0       -3.129005   -1.445203    3.294885
     15          1           0       -3.865173   -2.171071    3.631794
     16          6           0       -1.979541   -1.497010    4.032420
     17          8           0       -1.475824   -1.866266    5.036565
 ---------------------------------------------------------------------

 SCF Done:  E(RB3LYP) =  -439.149491952     A.U. after    1 cycles

 Isotropic polarizability for W=    0.000000      108.75 Bohr**3.
 End of Minotr F.D. properties file   721 does not exist.

 ******    1 imaginary frequencies (negative Signs) ******

                      1                      2                      3
                      A                      A                      A
 Frequencies --   -362.6539               108.1680               135.4537
 Red. masses --      6.9119                 5.9322                 4.5988
 Frc consts  --      0.5356                 0.0409                 0.0497
 IR Inten    --    178.1285                 2.2156                 2.6489

                      4                      5                      6
                      A                      A                      A
 Frequencies --    268.0964               284.0500               323.7167
 Red. masses --      4.7933                 3.3889                 7.6266
 Frc consts  --      0.2030                 0.1611                 0.4709
 IR Inten    --     21.2747                 3.9813                 6.1549

                      7                      8                      9
                      A                      A                      A
 Frequencies --    460.9349               513.1628               549.2556
 Red. masses --      4.6989                 4.3076                 2.7155
 Frc consts  --      0.5882                 0.6683                 0.4827
 IR Inten    --     13.6198                 2.2244                 0.6839

                     10                     11                     12
                      A                      A                      A
 Frequencies --    589.4174               609.6115               627.0287
 Red. masses --      1.4228                 3.3988                 2.4298
 Frc consts  --      0.2912                 0.7442                 0.5629
 IR Inten    --     33.0344                 9.7501                 9.1311

                     13                     14                     15
                      A                      A                      A
 Frequencies --    669.1461               707.7071               751.4056
 Red. masses --      1.7219                 2.5208                 1.3444
 Frc consts  --      0.4543                 0.7439                 0.4472
 IR Inten    --     58.5065                31.9516                70.6781

                     16                     17                     18
                      A                      A                      A
 Frequencies --    768.4974               796.4518               850.3147
 Red. masses --      1.8197                 2.0937                 4.4430
 Frc consts  --      0.6332                 0.7825                 1.8927
 IR Inten    --      2.9062                74.5040                37.8238

                     19                     20                     21
                      A                      A                      A
 Frequencies --    886.7452               895.4323               955.0469
 Red. masses --      1.3347                 5.2317                 1.3190
 Frc consts  --      0.6184                 2.4715                 0.7088
 IR Inten    --      0.3239                10.3082                 2.2666

                     22                     23                     24
                      A                      A                      A
 Frequencies --    984.7632               991.4687              1043.9969
 Red. masses --      2.1397                 2.4640                 1.3457
 Frc consts  --      1.2226                 1.4271                 0.8642
 IR Inten    --     13.9767                 4.0893                 6.2128

                     25                     26                     27
                      A                      A                      A
 Frequencies --   1098.3366              1126.6568              1146.4742
 Red. masses --      2.0451                 1.6441                 1.4169
 Frc consts  --      1.4535                 1.2296                 1.0973
 IR Inten    --     13.6211                 8.2971                 8.4464

                     28                     29                     30
                      A                      A                      A
 Frequencies --   1205.3057              1248.0723              1288.5271
 Red. masses --      1.1229                 1.9587                 1.7092
 Frc consts  --      0.9612                 1.7976                 1.6720
 IR Inten    --      8.7584                 0.9844                 2.4970

                     31                     32                     33
                      A                      A                      A
 Frequencies --   1392.0680              1412.9353              1438.5612
 Red. masses --      1.8182                 2.7511                 3.3198
 Frc consts  --      2.0759                 3.2359                 4.0478
 IR Inten    --      9.4076                 8.7213                50.4895

                     34                     35                     36
                      A                      A                      A
 Frequencies --   1461.1890              1529.2248              1596.5123
 Red. masses --      2.2284                 4.5192                 4.6826
 Frc consts  --      2.8033                 6.2267                 7.0321
 IR Inten    --      5.6499                 1.8208                95.1699

                     37                     38                     39
                      A                      A                      A
 Frequencies --   1603.3918              1943.5859              3117.5717
 Red. masses --      3.8778                12.6607                 1.0834
 Frc consts  --      5.8738                28.1783                 6.2041
 IR Inten    --     26.8104               802.1020                24.9800

                     40                     41                     42
                      A                      A                      A
 Frequencies --   3160.4203              3180.4941              3191.3082
 Red. masses --      1.0869                 1.0898                 1.0927
 Frc consts  --      6.3962                 6.4949                 6.5566
 IR Inten    --     13.7155                 1.4896                 5.0225

                     43                     44                     45
                      A                      A                      A
 Frequencies --   3252.1503              3270.7510              3621.4765
 Red. masses --      1.0907                 1.1047                 1.0807
 Frc consts  --      6.7966                 6.9630                 8.3510
 IR Inten    --      4.1744                 1.1072               114.8341

 - Thermochemistry -
 -------------------
 Temperature   298.150 Kelvin.  Pressure   1.00000 Atm.
 Atom     1 has atomic number  1 and mass   1.00783

 Molecular mass:   133.05276 amu.
 Principal axes and moments of inertia in atomic units:
                           1         2         3
     Eigenvalues --   832.384331360.504012094.96923
           X            0.77464   0.59528  -0.21350
           Y            0.39285  -0.18839   0.90010
           Z           -0.49559   0.78112   0.37979
 This molecule is an asymmetric top.
 Rotational symmetry number  1.
 Warning -- assumption of classical behavior for rotation
           may cause significant error
 Rotational temperatures (Kelvin)      0.10406     0.06366     0.04134
 Rotational constants (GHZ):           2.16816     1.32652     0.86146
    1 imaginary frequencies ignored.
 Zero-point vibrational energy     341264.0 (Joules/Mol)
                                   81.56405 (Kcal/Mol)
 Warning -- explicit consideration of  10 degrees of freedom as
           vibrations may cause significant error
 Vibrational temperatures:    155.63   194.89   385.73   408.68   465.76
          (Kelvin)            663.18   738.33   790.26   848.04   877.09
                              902.15   962.75  1018.23  1081.11  1105.70
                             1145.92  1223.41  1275.83  1288.33  1374.10
                             1416.85  1426.50  1502.08  1580.26  1621.01
                             1649.52  1734.17  1795.70  1853.90  2002.88
                             2032.90  2069.77  2102.33  2200.21  2297.03
                             2306.92  2796.39  4485.49  4547.14  4576.02
                             4591.58  4679.12  4705.88  5210.50

 Zero-point correction=                           0.129981 (Hartree/Particle)
 Thermal correction to Energy=                    0.137594
 Thermal correction to Enthalpy=                  0.138538
 Thermal correction to Gibbs Free Energy=         0.097587
 Sum of electronic and zero-point Energies=           -439.019511
 Sum of electronic and thermal Energies=              -439.011898
 Sum of electronic and thermal Enthalpies=            -439.010954
 Sum of electronic and thermal Free Energies=         -439.051905

                     E (Thermal)             CV                S
                      KCal/Mol        Cal/Mol-Kelvin    Cal/Mol-Kelvin
 Total                   86.342             30.450             86.190
 Electronic               0.000              0.000              0.000
 Translational            0.889              2.981             40.569
 Rotational               0.889              2.981             29.252
 Vibrational             84.564             24.489             16.369
 Vibration     1          0.606              1.943              3.302
 Vibration     2          0.613              1.918              2.867
 Vibration     3          0.673              1.732              1.608
 Vibration     4          0.682              1.703              1.509
 Vibration     5          0.708              1.628              1.291
 Vibration     6          0.819              1.337              0.763
 Vibration     7          0.868              1.221              0.626
 Vibration     8          0.905              1.141              0.546
 Vibration     9          0.947              1.054              0.468
 Vibration    10          0.969              1.011              0.433

 Optimization completed.
    -- Stationary point found.
 Normal termination of Gaussian 16 at Sat Jun 11 00:44:37 2022.
