 Gaussian 16, Revision A.03,
 Gaussian 16:  ES64L-G16RevA.03 25-Dec-2016

 ----------------------------------------------------------------------
 # Opt=(Z-matrix, MaxStep=10) B3LYP/Def2TZVP geom=allcheckpoint guess=r
 ead Field=read NoSymm freq=noraman pop=none
 ----------------------------------------------------------------------

 Structure from the checkpoint file:  "checkpoint.chk"
 ------------------
 int_zmat_initalOpt
 ------------------
 Charge =  0 Multiplicity = 1

 SCF Done:  E(RB3LYP) =  -210.249650528     A.U. after   10 cycles
 SCF Done:  E(RB3LYP) =  -210.249655171     A.U. after    8 cycles
 SCF Done:  E(RB3LYP) =  -210.249655950     A.U. after    7 cycles
 SCF Done:  E(RB3LYP) =  -210.249656331     A.U. after    7 cycles
 SCF Done:  E(RB3LYP) =  -210.249656707     A.U. after    6 cycles
 SCF Done:  E(RB3LYP) =  -210.249570085     A.U. after    9 cycles
 SCF Done:  E(RB3LYP) =  -210.249657161     A.U. after    7 cycles
 Optimization completed.
    -- Stationary point found.
 Normal termination of Gaussian 16 at Fri Jun 10 02:24:52 2022.

 --------------------------------------------------------------------
 #N Geom=AllCheck Guess=TCheck SCRF=Check GenChk RB3LYP/def2TZVP Freq
 --------------------------------------------------------------------

 Structure from the checkpoint file:  "checkpoint.chk"
 ------------------
 int_zmat_initalOpt
 ------------------
 Charge =  0 Multiplicity = 1

                          Input orientation:
 ---------------------------------------------------------------------
 Center     Atomic      Atomic             Coordinates (Angstroms)
 Number     Number       Type             X           Y           Z
 ---------------------------------------------------------------------
      1          6           0        0.000000    0.000000    0.000000
      2          6           0        0.000000    0.000000    1.420716
      3          6           0        1.309455    0.000000   -0.412255
      4          1           0       -0.866237    0.001431   -0.640330
      5          6           0        1.308088    0.003834    1.833786
      6          7           0        2.101102   -0.000323    0.711596
      7          1           0        1.737914    0.009011   -1.400261
      8          1           0       -0.865480    0.003020    2.062010
      9          1           0        1.733674    0.014564    2.822764
     10          1           0        3.102815    0.035581    0.714284
 ---------------------------------------------------------------------

 SCF Done:  E(RB3LYP) =  -210.249657161     A.U. after    1 cycles

 Isotropic polarizability for W=    0.000000       49.88 Bohr**3.
 End of Minotr F.D. properties file   721 does not exist.

                      1                      2                      3
                      A                      A                      A
 Frequencies --    356.8010               625.8522               636.3737
 Red. masses --      1.3705                 3.2108                 2.4979
 Frc consts  --      0.1028                 0.7410                 0.5960
 IR Inten    --     69.1320                 0.0154                 0.1938

                      4                      5                      6
                      A                      A                      A
 Frequencies --    664.3395               723.7561               831.0981
 Red. masses --      1.2868                 1.2074                 1.2160
 Frc consts  --      0.3346                 0.3726                 0.4949
 IR Inten    --      2.8794               147.5814                10.6161

                      7                      8                      9
                      A                      A                      A
 Frequencies --    876.3637               896.5038               904.8438
 Red. masses --      5.0426                 1.3015                 4.1213
 Frc consts  --      2.2818                 0.6163                 1.9881
 IR Inten    --      2.1820                 0.0510                 0.6269

                     10                     11                     12
                      A                      A                      A
 Frequencies --   1035.7706              1067.4585              1087.9066
 Red. masses --      1.4800                 1.4348                 1.5726
 Frc consts  --      0.9355                 0.9633                 1.0966
 IR Inten    --     35.5271                30.3559                 4.5158

                     13                     14                     15
                      A                      A                      A
 Frequencies --   1150.6462              1171.7928              1314.8813
 Red. masses --      1.2365                 3.3251                 1.3616
 Frc consts  --      0.9646                 2.6900                 1.3870
 IR Inten    --      0.4285                 6.6501                 0.6925

                     16                     17                     18
                      A                      A                      A
 Frequencies --   1417.4877              1445.1406              1495.1645
 Red. masses --      4.1940                 2.8925                 2.6283
 Frc consts  --      4.9649                 3.5591                 3.4619
 IR Inten    --      4.6624                 5.7618                 6.6424

                     19                     20                     21
                      A                      A                      A
 Frequencies --   1578.1235              3241.1505              3248.6313
 Red. masses --      3.1612                 1.0880                 1.0919
 Frc consts  --      4.6386                 6.7338                 6.7894
 IR Inten    --      2.0699                 1.0004                 0.7463

                     22                     23                     24
                      A                      A                      A
 Frequencies --   3258.9545              3267.5148              3677.2064
 Red. masses --      1.1002                 1.1069                 1.0798
 Frc consts  --      6.8844                 6.9629                 8.6028
 IR Inten    --      4.1579                 1.6649                33.9605

 - Thermochemistry -
 -------------------
 Temperature   298.150 Kelvin.  Pressure   1.00000 Atm.
 Atom     1 has atomic number  6 and mass  12.00000

 Molecular mass:    67.04220 amu.
 Principal axes and moments of inertia in atomic units:
                           1         2         3
     Eigenvalues --   196.57594 199.28710 395.85339
           X            0.99998  -0.00567  -0.00172
           Y            0.00172   0.00119   1.00000
           Z            0.00567   0.99998  -0.00119
 This molecule is an asymmetric top.
 Rotational symmetry number  1.
 Rotational temperatures (Kelvin)      0.44061     0.43462     0.21880
 Rotational constants (GHZ):           9.18089     9.05599     4.55912
 Zero-point vibrational energy     215170.9 (Joules/Mol)
                                   51.42707 (Kcal/Mol)
 Warning -- explicit consideration of   1 degrees of freedom as
           vibrations may cause significant error
 Vibrational temperatures:    513.36   900.46   915.60   955.84  1041.32
          (Kelvin)           1195.76  1260.89  1289.87  1301.87  1490.24
                             1535.83  1565.25  1655.52  1685.95  1891.82
                             2039.45  2079.23  2151.21  2270.57  4663.29
                             4674.06  4688.91  4701.22  5290.68

 Zero-point correction=                           0.081954 (Hartree/Particle)
 Thermal correction to Energy=                    0.086054
 Thermal correction to Enthalpy=                  0.086998
 Thermal correction to Gibbs Free Energy=         0.055472
 Sum of electronic and zero-point Energies=           -210.167703
 Sum of electronic and thermal Energies=              -210.163603
 Sum of electronic and thermal Enthalpies=            -210.162659
 Sum of electronic and thermal Free Energies=         -210.194185

                     E (Thermal)             CV                S
                      KCal/Mol        Cal/Mol-Kelvin    Cal/Mol-Kelvin
 Total                   54.000             15.139             66.353
 Electronic               0.000              0.000              0.000
 Translational            0.889              2.981             38.526
 Rotational               0.889              2.981             24.254
 Vibrational             52.222              9.177              3.573
 Vibration     1          0.732              1.561              1.136

                       ! Non-Optimized Parameters !
 Normal termination of Gaussian 16 at Fri Jun 10 02:26:21 2022.
