 Gaussian 16, Revision A.03,
 Gaussian 16:  ES64L-G16RevA.03 25-Dec-2016

 ----------------------------------------------------------------------
 # Opt=(TS, CalcFC, noeigentest, Z-matrix, MaxStep=10) geom=allcheckpoi
 nt guess=read Field=read NoSymm B3LYP/Def2TZVP freq=noraman pop=none
 ----------------------------------------------------------------------

 Structure from the checkpoint file:  "checkpoint.chk"
 -----------------
 ts_zmat_initalOpt
 -----------------
 Charge =  0 Multiplicity = 1

 SCF Done:  E(RB3LYP) =  -210.181429782     A.U. after   10 cycles
 SCF Done:  E(RB3LYP) =  -210.181434879     A.U. after    9 cycles
 Optimization completed.
    -- Stationary point found.
 Normal termination of Gaussian 16 at Fri Jun 10 02:27:09 2022.

 --------------------------------------------------------------------
 #N Geom=AllCheck Guess=TCheck SCRF=Check GenChk RB3LYP/def2TZVP Freq
 --------------------------------------------------------------------

 Structure from the checkpoint file:  "checkpoint.chk"
 -----------------
 ts_zmat_initalOpt
 -----------------
 Charge =  0 Multiplicity = 1

                          Input orientation:
 ---------------------------------------------------------------------
 Center     Atomic      Atomic             Coordinates (Angstroms)
 Number     Number       Type             X           Y           Z
 ---------------------------------------------------------------------
      1          6           0        0.000000    0.000000    0.000000
      2          6           0        0.000000    0.000000    1.392373
      3          6           0        1.338872    0.000000   -0.400820
      4          1           0       -0.857567   -0.001188   -0.653826
      5          6           0        1.328331    0.025367    1.813134
      6          7           0        2.198663   -0.021493    0.777932
      7          1           0        1.769036   -0.231865   -1.362915
      8          1           0       -0.872492    0.017653    2.027745
      9          1           0        2.033641    0.998582    0.040844
     10          1           0        1.700750    0.123272    2.822765
 ---------------------------------------------------------------------

 SCF Done:  E(RB3LYP) =  -210.181434879     A.U. after    1 cycles

 Isotropic polarizability for W=    0.000000       50.46 Bohr**3.
 End of Minotr F.D. properties file   721 does not exist.

 ******    1 imaginary frequencies (negative Signs) ******

                      1                      2                      3
                      A                      A                      A
 Frequencies --  -1487.7726               589.5216               638.5107
 Red. masses --      1.2139                 2.2439                 3.8775
 Frc consts  --      1.5831                 0.4595                 0.9314
 IR Inten    --    100.7128                 2.2722                 3.4966

                      4                      5                      6
                      A                      A                      A
 Frequencies --    754.8999               836.2483               873.9384
 Red. masses --      1.1167                 1.4328                 3.6498
 Frc consts  --      0.3749                 0.5903                 1.6424
 IR Inten    --     93.7095                 4.1028                14.0055

                      7                      8                      9
                      A                      A                      A
 Frequencies --    883.6455               891.8950               941.8096
 Red. masses --      1.7337                 2.8978                 2.1687
 Frc consts  --      0.7976                 1.3581                 1.1334
 IR Inten    --      9.7381                 6.1717                18.4231

                     10                     11                     12
                      A                      A                      A
 Frequencies --    955.1899              1068.1336              1093.2591
 Red. masses --      1.8269                 1.3747                 1.2386
 Frc consts  --      0.9821                 0.9241                 0.8723
 IR Inten    --     21.4408                11.5715                 1.1141

                     13                     14                     15
                      A                      A                      A
 Frequencies --   1135.2814              1176.4363              1248.5280
 Red. masses --      2.1765                 1.1500                 1.7889
 Frc consts  --      1.6528                 0.9377                 1.6430
 IR Inten    --      1.8432                24.9827                 1.8997

                     16                     17                     18
                      A                      A                      A
 Frequencies --   1311.6262              1432.7751              1483.0230
 Red. masses --      1.8045                 2.8937                 3.1249
 Frc consts  --      1.8291                 3.5000                 4.0493
 IR Inten    --      2.2294                 8.4857                 3.2174

                     19                     20                     21
                      A                      A                      A
 Frequencies --   1511.7921              2180.7881              3202.8225
 Red. masses --      3.5778                 1.0724                 1.0901
 Frc consts  --      4.8178                 3.0048                 6.5883
 IR Inten    --      1.7747                13.7509                15.0313

                     22                     23                     24
                      A                      A                      A
 Frequencies --   3228.1081              3232.6637              3251.0577
 Red. masses --      1.0938                 1.0937                 1.1041
 Frc consts  --      6.7156                 6.7339                 6.8754
 IR Inten    --      4.8291                 1.0573                 1.1303

 - Thermochemistry -
 -------------------
 Temperature   298.150 Kelvin.  Pressure   1.00000 Atm.
 Atom     1 has atomic number  6 and mass  12.00000

 Molecular mass:    67.04220 amu.
 Principal axes and moments of inertia in atomic units:
                           1         2         3
     Eigenvalues --   196.17908 204.22664 392.79730
           X            0.96631  -0.25710  -0.01197
           Y            0.01356   0.00439   0.99990
           Z            0.25702   0.96637  -0.00773
 This molecule is an asymmetric top.
 Rotational symmetry number  1.
 Rotational temperatures (Kelvin)      0.44150     0.42411     0.22051
 Rotational constants (GHZ):           9.19946     8.83695     4.59459
    1 imaginary frequencies ignored.
 Zero-point vibrational energy     202898.3 (Joules/Mol)
                                   48.49387 (Kcal/Mol)
 Warning -- explicit consideration of   1 degrees of freedom as
           vibrations may cause significant error
 Vibrational temperatures:    848.19   918.67  1086.13  1203.17  1257.40
          (Kelvin)           1271.37  1283.24  1355.05  1374.31  1536.81
                             1572.96  1633.42  1692.63  1796.35  1887.14
                             2061.44  2133.74  2175.13  3137.67  4608.15
                             4644.53  4651.08  4677.55

 Zero-point correction=                           0.077280 (Hartree/Particle)
 Thermal correction to Energy=                    0.080977
 Thermal correction to Enthalpy=                  0.081921
 Thermal correction to Gibbs Free Energy=         0.050995
 Sum of electronic and zero-point Energies=           -210.104155
 Sum of electronic and thermal Energies=              -210.100458
 Sum of electronic and thermal Enthalpies=            -210.099514
 Sum of electronic and thermal Free Energies=         -210.130440

                     E (Thermal)             CV                S
                      KCal/Mol        Cal/Mol-Kelvin    Cal/Mol-Kelvin
 Total                   50.814             13.369             65.090
 Electronic               0.000              0.000              0.000
 Translational            0.889              2.981             38.526
 Rotational               0.889              2.981             24.268
 Vibrational             49.036              7.407              2.296
 Vibration     1          0.947              1.054              0.468

 Optimization completed.
    -- Stationary point found.
 Normal termination of Gaussian 16 at Fri Jun 10 02:28:37 2022.
