 Gaussian 16, Revision A.03,
 Gaussian 16:  ES64L-G16RevA.03 25-Dec-2016

 ----------------------------------------------------------------------
 # Opt=(TS, CalcFC, noeigentest, Z-matrix, MaxStep=10) Field=read NoSym
 m B3LYP/Def2TZVP freq=noraman pop=none
 ----------------------------------------------------------------------

 -----------------
 ts_zmat_initalOpt
 -----------------
 Symbolic Z-matrix:
 Charge =  0 Multiplicity = 1

 SCF Done:  E(RB3LYP) =  -312.080280946     A.U. after   14 cycles
 SCF Done:  E(RB3LYP) =  -312.080293479     A.U. after    8 cycles
 Optimization completed.
    -- Stationary point found.
 Normal termination of Gaussian 16 at Fri Jun 10 02:47:26 2022.

 --------------------------------------------------------------------
 #N Geom=AllCheck Guess=TCheck SCRF=Check GenChk RB3LYP/def2TZVP Freq
 --------------------------------------------------------------------

 Structure from the checkpoint file:  "checkpoint.chk"
 -----------------
 ts_zmat_initalOpt
 -----------------
 Charge =  0 Multiplicity = 1

                          Input orientation:
 ---------------------------------------------------------------------
 Center     Atomic      Atomic             Coordinates (Angstroms)
 Number     Number       Type             X           Y           Z
 ---------------------------------------------------------------------
      1          6           0        0.000000    0.000000    0.000000
      2          6           0        0.000000    0.000000    1.539210
      3          6           0        1.488722    0.000000   -0.325761
      4          1           0       -0.489288   -0.881302   -0.419249
      5          1           0       -0.504684    0.871306   -0.421949
      6          6           0        1.489010    0.014218    1.861995
      7          6           0        2.202119    1.135782   -0.696913
      8          1           0       -0.476371   -0.887268    1.958867
      9          1           0       -0.514522    0.863549    1.963947
     10          1           0        1.931575   -0.960876   -0.561324
     11          6           0        1.792010    2.431273   -0.470377
     12          6           0        2.198346    1.158203    2.213855
     13          1           0        1.936547   -0.939639    2.115478
     14          1           0        3.246129    0.983609   -0.958283
     15          6           0        1.777798    2.446250    1.972636
     16          1           0        3.239401    1.015720    2.489483
     17          1           0        0.745791    2.679447   -0.370160
     18          1           0        2.447449    3.258217   -0.708907
     19          1           0        0.729213    2.682457    1.867444
     20          1           0        2.422651    3.281349    2.210591
 ---------------------------------------------------------------------

 SCF Done:  E(RB3LYP) =  -312.080293479     A.U. after    1 cycles

 Isotropic polarizability for W=    0.000000      102.38 Bohr**3.
 End of Minotr F.D. properties file   721 does not exist.

 ******    1 imaginary frequencies (negative Signs) ******

                      1                      2                      3
                      A                      A                      A
 Frequencies --   -427.3369                60.5594               260.4118
 Red. masses --      8.1922                 2.0972                 4.2361
 Frc consts  --      0.8814                 0.0045                 0.1693
 IR Inten    --      2.3339                 0.0100                 0.0738

                      4                      5                      6
                      A                      A                      A
 Frequencies --    261.3569               284.6780               302.1121
 Red. masses --      2.6383                 2.9570                 3.3631
 Frc consts  --      0.1062                 0.1412                 0.1809
 IR Inten    --      0.9574                 0.3174                 0.1592

                      7                      8                      9
                      A                      A                      A
 Frequencies --    370.7414               422.6242               530.8331
 Red. masses --      2.3288                 2.2806                 2.2833
 Frc consts  --      0.1886                 0.2400                 0.3791
 IR Inten    --      1.3577                 1.6128                 2.6153

                     10                     11                     12
                      A                      A                      A
 Frequencies --    574.6915               659.4624               687.6741
 Red. masses --      2.0434                 2.6506                 1.3284
 Frc consts  --      0.3976                 0.6792                 0.3701
 IR Inten    --      0.4080                 3.6488                 0.1617

                     13                     14                     15
                      A                      A                      A
 Frequencies --    720.0472               763.8620               786.5231
 Red. masses --      1.3141                 1.1016                 1.3243
 Frc consts  --      0.4014                 0.3787                 0.4827
 IR Inten    --     23.6477                 5.2620                 7.1222

                     16                     17                     18
                      A                      A                      A
 Frequencies --    863.1820               897.0019               913.3014
 Red. masses --      1.4982                 1.1571                 2.4507
 Frc consts  --      0.6577                 0.5485                 1.2044
 IR Inten    --     11.8995                 2.8508                 0.7897

                     19                     20                     21
                      A                      A                      A
 Frequencies --    942.6490               951.5655               994.2618
 Red. masses --      1.4613                 1.5333                 1.5218
 Frc consts  --      0.7650                 0.8180                 0.8864
 IR Inten    --      0.1195                10.2662                 5.0802

                     22                     23                     24
                      A                      A                      A
 Frequencies --    996.0399              1012.2468              1023.5511
 Red. masses --      1.7402                 1.5034                 1.2676
 Frc consts  --      1.0172                 0.9076                 0.7824
 IR Inten    --      0.7406                 1.0623                20.7879

                     25                     26                     27
                      A                      A                      A
 Frequencies --   1042.2215              1089.3752              1148.2672
 Red. masses --      1.4210                 1.9409                 1.2932
 Frc consts  --      0.9094                 1.3571                 1.0046
 IR Inten    --      0.3626                 5.7411                 0.3294

                     28                     29                     30
                      A                      A                      A
 Frequencies --   1182.0194              1220.3233              1264.0960
 Red. masses --      1.6046                 1.5209                 1.1334
 Frc consts  --      1.3209                 1.3344                 1.0671
 IR Inten    --      0.4954                 0.2775                 0.0549

                     31                     32                     33
                      A                      A                      A
 Frequencies --   1289.5521              1295.8485              1301.0762
 Red. masses --      1.4798                 1.4374                 1.3325
 Frc consts  --      1.4499                 1.4221                 1.3290
 IR Inten    --      0.1328                 0.8093                 1.1734

                     34                     35                     36
                      A                      A                      A
 Frequencies --   1324.5340              1429.3966              1431.7305
 Red. masses --      1.4090                 1.3402                 1.3243
 Frc consts  --      1.4564                 1.6133                 1.5995
 IR Inten    --      3.0019                 1.2137                 2.4327

                     37                     38                     39
                      A                      A                      A
 Frequencies --   1487.6046              1496.7919              1506.5222
 Red. masses --      1.1592                 2.2711                 1.5518
 Frc consts  --      1.5114                 2.9979                 2.0751
 IR Inten    --      2.3237                 3.9713                 0.1254

                     40                     41                     42
                      A                      A                      A
 Frequencies --   1509.5762              1560.7796              1611.8803
 Red. masses --      1.1325                 1.8961                 3.7528
 Frc consts  --      1.5206                 2.7214                 5.7447
 IR Inten    --     15.6134                 2.1741                 5.4326

                     43                     44                     45
                      A                      A                      A
 Frequencies --   3038.2020              3049.7328              3066.9456
 Red. masses --      1.0583                 1.0599                 1.1053
 Frc consts  --      5.7558                 5.8080                 6.1255
 IR Inten    --     41.2901                52.6895                 2.0195

                     46                     47                     48
                      A                      A                      A
 Frequencies --   3090.3010              3120.2649              3130.1296
 Red. masses --      1.1060                 1.0849                 1.0854
 Frc consts  --      6.2230                 6.2235                 6.2657
 IR Inten    --     26.2028                13.5201                12.8293

                     49                     50                     51
                      A                      A                      A
 Frequencies --   3153.6652              3159.5480              3160.9254
 Red. masses --      1.0619                 1.0809                 1.0670
 Frc consts  --      6.2223                 6.3577                 6.2810
 IR Inten    --      2.5179                21.0544                14.8789

                     52                     53                     54
                      A                      A                      A
 Frequencies --   3167.1102              3232.1170              3243.5382
 Red. masses --      1.0870                 1.1164                 1.1141
 Frc consts  --      6.4241                 6.8716                 6.9059
 IR Inten    --     13.4652                 1.3280                18.9486

 - Thermochemistry -
 -------------------
 Temperature   298.150 Kelvin.  Pressure   1.00000 Atm.
 Atom     1 has atomic number  6 and mass  12.00000

 Molecular mass:   108.09390 amu.
 Principal axes and moments of inertia in atomic units:
                           1         2         3
     Eigenvalues --   724.55717 781.336541140.33280
           X            0.58375   0.01158   0.81185
           Y            0.81143   0.02685  -0.58383
           Z           -0.02856   0.99957   0.00628
 This molecule is an asymmetric top.
 Rotational symmetry number  1.
 Warning -- assumption of classical behavior for rotation
           may cause significant error
 Rotational temperatures (Kelvin)      0.11954     0.11085     0.07595
 Rotational constants (GHZ):           2.49082     2.30981     1.58264
    1 imaginary frequencies ignored.
 Zero-point vibrational energy     461061.4 (Joules/Mol)
                                  110.19633 (Kcal/Mol)
 Warning -- explicit consideration of   9 degrees of freedom as
           vibrations may cause significant error
 Vibrational temperatures:     87.13   374.67   376.03   409.59   434.67
          (Kelvin)            533.41   608.06   763.75   826.85   948.82
                              989.41  1035.99  1099.03  1131.63  1241.93
                             1290.59  1314.04  1356.26  1369.09  1430.52
                             1433.08  1456.40  1472.66  1499.52  1567.37
                             1652.10  1700.66  1755.77  1818.75  1855.38
                             1864.44  1871.96  1905.71  2056.58  2059.94
                             2140.33  2153.55  2167.55  2171.94  2245.61
                             2319.14  4371.30  4387.89  4412.65  4446.25
                             4489.37  4503.56  4537.42  4545.88  4547.87
                             4556.77  4650.30  4666.73

 Zero-point correction=                           0.175609 (Hartree/Particle)
 Thermal correction to Energy=                    0.183193
 Thermal correction to Enthalpy=                  0.184137
 Thermal correction to Gibbs Free Energy=         0.143953
 Sum of electronic and zero-point Energies=           -311.904684
 Sum of electronic and thermal Energies=              -311.897100
 Sum of electronic and thermal Enthalpies=            -311.896156
 Sum of electronic and thermal Free Energies=         -311.936340

                     E (Thermal)             CV                S
                      KCal/Mol        Cal/Mol-Kelvin    Cal/Mol-Kelvin
 Total                  114.955             30.481             84.574
 Electronic               0.000              0.000              0.000
 Translational            0.889              2.981             39.950
 Rotational               0.889              2.981             27.959
 Vibrational            113.178             24.520             16.665
 Vibration     1          0.597              1.973              4.439
 Vibration     2          0.668              1.745              1.659
 Vibration     3          0.669              1.743              1.653
 Vibration     4          0.683              1.702              1.505
 Vibration     5          0.694              1.670              1.405
 Vibration     6          0.743              1.532              1.077
 Vibration     7          0.785              1.421              0.883
 Vibration     8          0.886              1.182              0.585
 Vibration     9          0.931              1.086              0.495

 Optimization completed.
    -- Stationary point found.
 Normal termination of Gaussian 16 at Fri Jun 10 02:57:36 2022.
