 Gaussian 16, Revision A.03,
 Gaussian 16:  ES64L-G16RevA.03 25-Dec-2016

 ----------------------------------------------------------------------
 # Opt=(Z-matrix, MaxStep=10) B3LYP/Def2TZVP Field=read NoSymm freq=nor
 aman pop=none
 ----------------------------------------------------------------------

 ------------------
 int_zmat_initalOpt
 ------------------
 Symbolic Z-matrix:
 Charge =  0 Multiplicity = 1

 SCF Done:  E(RB3LYP) =  -387.392663632     A.U. after   14 cycles
 SCF Done:  E(RB3LYP) =  -387.392680858     A.U. after    8 cycles
 SCF Done:  E(RB3LYP) =  -387.392685941     A.U. after    8 cycles
 SCF Done:  E(RB3LYP) =  -387.392686914     A.U. after    8 cycles
 SCF Done:  E(RB3LYP) =  -387.392687851     A.U. after    8 cycles
 SCF Done:  E(RB3LYP) =  -387.392688733     A.U. after    8 cycles
 SCF Done:  E(RB3LYP) =  -387.392689054     A.U. after    8 cycles
 Optimization completed.
    -- Stationary point found.

 1\1\GINC-BHC0069\FOpt\RB3LYP\def2TZVP\C8H12O1\DHANAWAY\10-Jun-2022\1\\
 # Opt=(Z-matrix, MaxStep=10) B3LYP/Def2TZVP Field=read NoSymm freq=nor
 aman pop=none\\int_zmat_initalOpt\\0,1\H\C,1,R2\C,2,R3,1,A3\O,2,R4,1,A
 4,3,D4,0\H,2,R5,1,A5,3,D5,0\C,4,R6,2,A6,1,D6,0\C,3,R7,2,A7,1,D7,0\C,3,
 R8,2,A8,7,D8,0\H,6,R9,4,A9,2,D9,0\H,6,R10,4,A10,9,D10,0\C,7,R11,3,A11,
 2,D11,0\H,7,R12,3,A12,11,D12,0\H,8,R13,3,A13,2,D13,0\C,8,R14,3,A14,13,
 D14,0\C,11,R15,7,A15,3,D15,0\H,11,R16,7,A16,15,D16,0\H,14,R17,8,A17,3,
 D17,0\H,14,R18,8,A18,17,D18,0\H,14,R19,8,A19,17,D19,0\H,15,R20,11,A20,

 Normal termination of Gaussian 16 at Fri Jun 10 23:01:24 2022.

 --------------------------------------------------------------------
 #N Geom=AllCheck Guess=TCheck SCRF=Check GenChk RB3LYP/def2TZVP Freq
 --------------------------------------------------------------------

 Structure from the checkpoint file:  "checkpoint.chk"
 ------------------
 int_zmat_initalOpt
 ------------------
 Charge =  0 Multiplicity = 1

                          Input orientation:
 ---------------------------------------------------------------------
 Center     Atomic      Atomic             Coordinates (Angstroms)
 Number     Number       Type             X           Y           Z
 ---------------------------------------------------------------------
      1          1           0        0.000000    0.000000    0.000000
      2          6           0        0.000000    0.000000    1.099164
      3          6           0        1.411455    0.000000    1.651105
      4          8           0       -0.620872    1.190396    1.585658
      5          1           0       -0.597958   -0.849288    1.437359
      6          6           0        0.411395    2.128271    1.870477
      7          6           0        1.555368    1.291903    2.450873
      8          6           0        2.333340   -0.936328    1.460728
      9          1           0        0.009004    2.867606    2.562382
     10          1           0        0.732410    2.637593    0.951049
     11          6           0        2.921406    1.908635    2.461182
     12          1           0        1.289262    1.058559    3.491825
     13          1           0        3.314088   -0.801523    1.906391
     14          6           0        2.149974   -2.202591    0.680195
     15          6           0        3.225342    3.163437    2.151706
     16          1           0        3.721588    1.250499    2.786211
     17          1           0        1.160196   -2.277459    0.229131
     18          1           0        2.292449   -3.078516    1.320073
     19          1           0        2.892027   -2.279362   -0.120107
     20          1           0        2.481045    3.884659    1.836542
     21          1           0        4.245875    3.519591    2.210224
 ---------------------------------------------------------------------

 SCF Done:  E(RB3LYP) =  -387.392689054     A.U. after    1 cycles

 Isotropic polarizability for W=    0.000000       97.37 Bohr**3.
 End of Minotr F.D. properties file   721 does not exist.

                      1                      2                      3
                      A                      A                      A
 Frequencies --     51.6284                77.7984               120.8712
 Red. masses --      2.3810                 2.5047                 1.0271
 Frc consts  --      0.0037                 0.0089                 0.0088
 IR Inten    --      0.2541                 0.1689                 0.2512

                      4                      5                      6
                      A                      A                      A
 Frequencies --    176.4945               185.2587               212.2770
 Red. masses --      2.4892                 2.9693                 2.5686
 Frc consts  --      0.0457                 0.0600                 0.0682
 IR Inten    --      0.3080                 0.1767                 8.3044

                      7                      8                      9
                      A                      A                      A
 Frequencies --    239.9419               323.8207               432.2550
 Red. masses --      2.9586                 2.5143                 2.7023
 Frc consts  --      0.1004                 0.1553                 0.2975
 IR Inten    --      0.7573                 0.4910                 0.9851

                     10                     11                     12
                      A                      A                      A
 Frequencies --    489.8450               527.8048               572.6594
 Red. masses --      2.6468                 2.3788                 2.8551
 Frc consts  --      0.3742                 0.3904                 0.5517
 IR Inten    --      3.1383                 3.3709                 2.1387

                     13                     14                     15
                      A                      A                      A
 Frequencies --    644.2735               695.4677               790.3290
 Red. masses --      4.7501                 1.9978                 2.2056
 Frc consts  --      1.1617                 0.5693                 0.8117
 IR Inten    --      1.3161                13.0419                 6.7500

                     16                     17                     18
                      A                      A                      A
 Frequencies --    858.2764               945.5252               946.5101
 Red. masses --      1.3023                 2.8927                 1.5211
 Frc consts  --      0.5652                 1.5237                 0.8029
 IR Inten    --      7.1721                39.4400                33.6586

                     19                     20                     21
                      A                      A                      A
 Frequencies --    957.1415               986.1866              1006.7636
 Red. masses --      3.3988                 1.6654                 1.6553
 Frc consts  --      1.8345                 0.9543                 0.9885
 IR Inten    --     14.5615                13.8408                 9.9255

                     22                     23                     24
                      A                      A                      A
 Frequencies --   1018.3132              1033.3444              1048.9995
 Red. masses --      1.5518                 1.3065                 1.5202
 Frc consts  --      0.9481                 0.8220                 0.9856
 IR Inten    --      6.3698                 2.0043                12.7921

                     25                     26                     27
                      A                      A                      A
 Frequencies --   1065.6241              1087.7125              1105.5982
 Red. masses --      1.5649                 4.3689                 3.4022
 Frc consts  --      1.0470                 3.0455                 2.4502
 IR Inten    --      1.1486                30.8258                55.1752

                     28                     29                     30
                      A                      A                      A
 Frequencies --   1165.7941              1190.9826              1222.3813
 Red. masses --      2.1173                 2.0387                 1.1757
 Frc consts  --      1.6954                 1.7038                 1.0350
 IR Inten    --      7.0623                 8.4725                 0.5462

                     31                     32                     33
                      A                      A                      A
 Frequencies --   1248.2311              1283.7371              1315.7491
 Red. masses --      1.3552                 1.2479                 1.4019
 Frc consts  --      1.2441                 1.2117                 1.4300
 IR Inten    --      1.5862                 3.7244                 0.1431

                     34                     35                     36
                      A                      A                      A
 Frequencies --   1335.9065              1352.4002              1385.8021
 Red. masses --      1.2407                 1.2456                 1.4273
 Frc consts  --      1.3045                 1.3422                 1.6149
 IR Inten    --      2.7807                 0.6792                 4.6118

                     37                     38                     39
                      A                      A                      A
 Frequencies --   1397.8618              1418.3872              1463.2115
 Red. masses --      1.5182                 1.2757                 1.2040
 Frc consts  --      1.7478                 1.5121                 1.5188
 IR Inten    --      4.1444                 0.7941                 1.8067

                     40                     41                     42
                      A                      A                      A
 Frequencies --   1483.5186              1492.3661              1503.9057
 Red. masses --      1.0433                 1.0601                 1.0820
 Frc consts  --      1.3529                 1.3911                 1.4419
 IR Inten    --      5.4734                10.9671                 0.0397

                     43                     44                     45
                      A                      A                      A
 Frequencies --   1520.9104              1703.9012              1751.0416
 Red. masses --      1.0947                 4.5414                 7.7531
 Frc consts  --      1.4919                 7.7684                14.0062
 IR Inten    --      1.2398                20.0669                 0.7741

                     46                     47                     48
                      A                      A                      A
 Frequencies --   2963.6430              2966.2066              2978.5474
 Red. masses --      1.0737                 1.0747                 1.0755
 Frc consts  --      5.5561                 5.5708                 5.6218
 IR Inten    --     36.9533                32.7833                57.5491

                     49                     50                     51
                      A                      A                      A
 Frequencies --   3020.0066              3055.1162              3059.0056
 Red. masses --      1.0381                 1.0901                 1.0989
 Frc consts  --      5.5784                 5.9948                 6.0588
 IR Inten    --     30.2962                28.0155                10.5077

                     52                     53                     54
                      A                      A                      A
 Frequencies --   3096.1097              3100.4980              3136.5084
 Red. masses --      1.0930                 1.0978                 1.0740
 Frc consts  --      6.1731                 6.2178                 6.2252
 IR Inten    --     31.3486                15.1163                 7.5426

                     55                     56                     57
                      A                      A                      A
 Frequencies --   3142.5175              3146.9154              3218.2757
 Red. masses --      1.0748                 1.0875                 1.1153
 Frc consts  --      6.2538                 6.3452                 6.8058
 IR Inten    --      7.5743                18.1826                13.4917

 - Thermochemistry -
 -------------------
 Temperature   298.150 Kelvin.  Pressure   1.00000 Atm.
 Atom     1 has atomic number  1 and mass   1.00783

 Molecular mass:   124.08882 amu.
 Principal axes and moments of inertia in atomic units:
                           1         2         3
     Eigenvalues --   832.465851363.284902067.54456
           X            0.14632   0.98191  -0.12020
           Y            0.94444  -0.17481  -0.27835
           Z            0.29432   0.07280   0.95293
 This molecule is an asymmetric top.
 Rotational symmetry number  1.
 Warning -- assumption of classical behavior for rotation
           may cause significant error
 Rotational temperatures (Kelvin)      0.10405     0.06353     0.04189
 Rotational constants (GHZ):           2.16795     1.32382     0.87289
 Zero-point vibrational energy     476832.4 (Joules/Mol)
                                  113.96569 (Kcal/Mol)
 Warning -- explicit consideration of  12 degrees of freedom as
           vibrations may cause significant error
 Vibrational temperatures:     74.28   111.93   173.91   253.94   266.55
          (Kelvin)            305.42   345.22   465.91   621.92   704.78
                              759.39   823.93   926.97  1000.62  1137.11
                             1234.87  1360.40  1361.82  1377.11  1418.90
                             1448.51  1465.13  1486.75  1509.28  1533.20
                             1564.98  1590.71  1677.32  1713.56  1758.73
                             1795.93  1847.01  1893.07  1922.07  1945.80
                             1993.86  2011.21  2040.74  2105.23  2134.45
                             2147.18  2163.78  2188.25  2451.53  2519.36
                             4264.02  4267.71  4285.47  4345.12  4395.63
                             4401.23  4454.61  4460.93  4512.74  4521.38
                             4527.71  4630.38

 Zero-point correction=                           0.181616 (Hartree/Particle)
 Thermal correction to Energy=                    0.191200
 Thermal correction to Enthalpy=                  0.192144
 Thermal correction to Gibbs Free Energy=         0.146433
 Sum of electronic and zero-point Energies=           -387.211073
 Sum of electronic and thermal Energies=              -387.201489
 Sum of electronic and thermal Enthalpies=            -387.200545
 Sum of electronic and thermal Free Energies=         -387.246256

                     E (Thermal)             CV                S
                      KCal/Mol        Cal/Mol-Kelvin    Cal/Mol-Kelvin
 Total                  119.980             34.850             96.207
 Electronic               0.000              0.000              0.000
 Translational            0.889              2.981             40.361
 Rotational               0.889              2.981             29.241
 Vibrational            118.203             28.889             26.605
 Vibration     1          0.596              1.977              4.754
 Vibration     2          0.599              1.964              3.946
 Vibration     3          0.609              1.932              3.086
 Vibration     4          0.628              1.871              2.365
 Vibration     5          0.631              1.860              2.275
 Vibration     6          0.643              1.822              2.024
 Vibration     7          0.657              1.779              1.803
 Vibration     8          0.708              1.628              1.291
 Vibration     9          0.793              1.400              0.851
 Vibration    10          0.846              1.273              0.684
 Vibration    11          0.883              1.188              0.592
 Vibration    12          0.929              1.090              0.499

                       ! Non-Optimized Parameters !

 1\1\GINC-BHC0069\Freq\RB3LYP\def2TZVP\C8H12O1\DHANAWAY\10-Jun-2022\1\\
 #N Geom=AllCheck Guess=TCheck SCRF=Check GenChk RB3LYP/def2TZVP Freq\\
 int_zmat_initalOpt\\0,1\H\C,1,R2\C,2,R3,1,A3\O,2,R4,1,A4,3,D4,0\H,2,R5
 ,1,A5,3,D5,0\C,4,R6,2,A6,1,D6,0\C,3,R7,2,A7,1,D7,0\C,3,R8,2,A8,7,D8,0\
 H,6,R9,4,A9,2,D9,0\H,6,R10,4,A10,9,D10,0\C,7,R11,3,A11,2,D11,0\H,7,R12
 ,3,A12,11,D12,0\H,8,R13,3,A13,2,D13,0\C,8,R14,3,A14,13,D14,0\C,11,R15,
 7,A15,3,D15,0\H,11,R16,7,A16,15,D16,0\H,14,R17,8,A17,3,D17,0\H,14,R18,
 8,A18,17,D18,0\H,14,R19,8,A19,17,D19,0\H,15,R20,11,A20,7,D20,0\H,15,R2

 Normal termination of Gaussian 16 at Fri Jun 10 23:13:37 2022.
