 Gaussian 16, Revision A.03,
 Gaussian 16:  ES64L-G16RevA.03 25-Dec-2016

 --------------------------
 # sp B3LYP/Def2TZVP NoSymm
 --------------------------

 ---------------------------
 ts_initalOpt_zmat_AlignedSp
 ---------------------------
 Symbolic Z-matrix:
 Charge =  0 Multiplicity = 1

                          Input orientation:
 ---------------------------------------------------------------------
 Center     Atomic      Atomic             Coordinates (Angstroms)
 Number     Number       Type             X           Y           Z
 ---------------------------------------------------------------------
      1          1           0        0.000000    0.000000    0.000000
      2          6           0        0.000000    0.000000    1.094816
      3          6           0        1.380252    0.000000    1.594497
      4          8           0       -0.692015    1.180952    1.520619
      5          1           0       -0.551410   -0.884146    1.434076
      6          6           0        0.000526    1.881342    2.563128
      7          6           0        2.619836    0.036100    1.443114
      8          6           0        0.673415    0.892491    3.466524
      9          1           0       -0.778745    2.431316    3.096624
     10          1           0        0.706387    2.606099    2.144488
     11          6           0        3.756973   -0.210665    0.523541
     12          6           0        1.866106    0.996368    4.151473
     13          1           0       -0.042054    0.188539    3.887532
     14          1           0        3.417650   -0.548441   -0.458067
     15          1           0        4.431087   -0.968154    0.930880
     16          1           0        4.347532    0.698965    0.388956
     17          6           0        3.038264    1.566584    3.616647
     18          1           0        2.008531    0.283998    4.958935
     19          1           0        2.967561    2.468838    3.015904
     20          1           0        3.126709    0.689604    2.607393
     21          1           0        3.939660    1.524826    4.219626
 ---------------------------------------------------------------------

 SCF Done:  E(RB3LYP) =  -387.287090719     A.U. after   14 cycles

 Alpha  occ. eigenvalues --  -19.12394 -10.23203 -10.21739 -10.18669 -10.18060
 Alpha  occ. eigenvalues --  -10.17854 -10.17434 -10.17270 -10.17202  -1.02972
 Alpha  occ. eigenvalues --   -0.81625  -0.78807  -0.74093  -0.72010  -0.67379
 Alpha  occ. eigenvalues --   -0.62652  -0.54638  -0.51817  -0.50439  -0.47054
 Alpha  occ. eigenvalues --   -0.46041  -0.45697  -0.43770  -0.42776  -0.42261
 Alpha  occ. eigenvalues --   -0.40561  -0.39097  -0.37860  -0.36140  -0.32550
 Alpha  occ. eigenvalues --   -0.27330  -0.26575  -0.25257  -0.22952
 Alpha virt. eigenvalues --   -0.01999   0.01430   0.02566   0.03597   0.05248
 Alpha virt. eigenvalues --    0.06212   0.07183   0.09067   0.09704   0.10138
 Alpha virt. eigenvalues --    0.11045   0.11751   0.12720   0.13050   0.14145

 Mulliken charges:
               1
     1  H    0.097207
     2  C    0.059366
     3  C   -0.107679
     4  O   -0.321547
     5  H    0.089626
     6  C    0.059831
     7  C   -0.128821
     8  C   -0.172676
     9  H    0.097969
    10  H    0.067897
    11  C   -0.321759
    12  C   -0.045609
    13  H    0.093566
    14  H    0.121284
    15  H    0.129661
    16  H    0.123670
    17  C   -0.355893
    18  H    0.097585
    19  H    0.123751
    20  H    0.173908
    21  H    0.118664
 Sum of Mulliken charges =  -0.00000

 Dipole moment (field-independent basis, Debye):
    X=              1.7283    Y=             -0.5565    Z=             -0.1174  Tot=              1.8194
 Quadrupole moment (field-independent basis, Debye-Ang):
   XX=            -51.6659   YY=            -56.3587   ZZ=            -55.3338
   XY=              2.1346   XZ=              1.0858   YZ=             -0.5838

 Normal termination of Gaussian 16 at Fri Jun 10 22:28:29 2022.
