 Gaussian 16, Revision A.03,
 Gaussian 16:  ES64L-G16RevA.03 25-Dec-2016

 ----------------------------------------------------------------------
 # Opt=(TS, CalcFC, noeigentest, Z-matrix, MaxStep=10) Field=read NoSym
 m B3LYP/Def2TZVP freq=noraman pop=none
 ----------------------------------------------------------------------

 -----------------
 ts_zmat_initalOpt
 -----------------
 Symbolic Z-matrix:
 Charge =  0 Multiplicity = 1

 SCF Done:  E(RB3LYP) =  -573.604887533     A.U. after   15 cycles
 SCF Done:  E(RB3LYP) =  -573.605001612     A.U. after   12 cycles
 SCF Done:  E(RB3LYP) =  -573.605001779     A.U. after    8 cycles
 Optimization completed.
    -- Stationary point found.
 Normal termination of Gaussian 16 at Sun Jun 12 01:58:51 2022.

 --------------------------------------------------------------------
 #N Geom=AllCheck Guess=TCheck SCRF=Check GenChk RB3LYP/def2TZVP Freq
 --------------------------------------------------------------------

 Structure from the checkpoint file:  "checkpoint.chk"
 -----------------
 ts_zmat_initalOpt
 -----------------
 Charge =  0 Multiplicity = 1

                          Input orientation:
 ---------------------------------------------------------------------
 Center     Atomic      Atomic             Coordinates (Angstroms)
 Number     Number       Type             X           Y           Z
 ---------------------------------------------------------------------
      1          6           0        0.000000    0.000000    0.000000
      2          1           0        0.000000    0.000000    1.087088
      3          1           0        1.043727    0.000000   -0.341436
      4          6           0       -0.714496   -1.150801   -0.659606
      5          6           0       -0.714496    1.150801   -0.659606
      6          6           0       -1.133556    0.695545   -1.918279
      7          6           0       -1.133556   -0.695545   -1.918279
      8          1           0       -0.520001    2.188052   -0.427298
      9          1           0       -0.520001   -2.188052   -0.427298
     10          1           0       -1.511189    1.322945   -2.712327
     11          1           0       -1.511189   -1.322945   -2.712327
     12          6           0       -2.484533   -0.692521    0.544591
     13          6           0       -3.609534   -1.091250   -0.320405
     14          6           0       -2.459078    0.707655    0.571660
     15          1           0       -2.173413   -1.352354    1.338367
     16          8           0       -4.146988    0.075225   -0.880132
     17          8           0       -4.066021   -2.166613   -0.567207
     18          6           0       -3.571954    1.188059   -0.267120
     19          1           0       -2.113030    1.321817    1.387326
     20          8           0       -3.989612    2.289925   -0.459861
 ---------------------------------------------------------------------

 SCF Done:  E(RB3LYP) =  -573.605001779     A.U. after    1 cycles

 Isotropic polarizability for W=    0.000000      110.94 Bohr**3.
 End of Minotr F.D. properties file   721 does not exist.

 ******    1 imaginary frequencies (negative Signs) ******

                      1                      2                      3
                      A                      A                      A
 Frequencies --   -458.7462                80.7049               124.0278
 Red. masses --      9.2511                 5.6233                 4.5203
 Frc consts  --      1.1471                 0.0216                 0.0410
 IR Inten    --      0.7420                 1.2667                 0.0049

                      4                      5                      6
                      A                      A                      A
 Frequencies --    128.1559               177.7698               184.2728
 Red. masses --      7.2456                14.5468                 6.8731
 Frc consts  --      0.0701                 0.2709                 0.1375
 IR Inten    --      5.2053                 1.9374                 1.8759

                      7                      8                      9
                      A                      A                      A
 Frequencies --    293.6239               400.7279               430.7572
 Red. masses --      3.8111                 8.7867                 5.8258
 Frc consts  --      0.1936                 0.8313                 0.6369
 IR Inten    --      2.2148                 5.4156                 1.8705

                     10                     11                     12
                      A                      A                      A
 Frequencies --    470.2235               567.6186               616.1367
 Red. masses --      2.1769                 2.9052                 5.0194
 Frc consts  --      0.2836                 0.5515                 1.1227
 IR Inten    --      1.9587                 0.5943                16.9383

                     13                     14                     15
                      A                      A                      A
 Frequencies --    624.3270               719.7998               745.5810
 Red. masses --     10.3567                 7.3357                 6.7330
 Frc consts  --      2.3785                 2.2393                 2.2052
 IR Inten    --      2.4416                31.0640                17.6363

                     16                     17                     18
                      A                      A                      A
 Frequencies --    768.0794               778.0244               799.2671
 Red. masses --      2.0580                 6.9509                 1.2431
 Frc consts  --      0.7153                 2.4790                 0.4679
 IR Inten    --      6.4365                 1.6126                22.4910

                     19                     20                     21
                      A                      A                      A
 Frequencies --    812.9591               849.3812               861.0388
 Red. masses --      2.7917                 1.5755                 1.6324
 Frc consts  --      1.0871                 0.6697                 0.7130
 IR Inten    --      2.5208                46.5837                22.5660

                     22                     23                     24
                      A                      A                      A
 Frequencies --    888.5679               895.5068               913.4961
 Red. masses --      5.9663                 5.1742                 1.7966
 Frc consts  --      2.7755                 2.4447                 0.8833
 IR Inten    --     63.4424               100.9238                 6.0611

                     25                     26                     27
                      A                      A                      A
 Frequencies --    935.9056               977.2931               977.9966
 Red. masses --      1.4181                 1.6935                 1.6626
 Frc consts  --      0.7318                 0.9530                 0.9370
 IR Inten    --      0.0237                 0.7813                 1.0149

                     28                     29                     30
                      A                      A                      A
 Frequencies --    992.4105               997.8377              1068.1526
 Red. masses --      1.3461                 1.3574                 1.3527
 Frc consts  --      0.7811                 0.7963                 0.9093
 IR Inten    --      4.2986                11.2514                 1.1818

                     31                     32                     33
                      A                      A                      A
 Frequencies --   1077.4653              1091.7119              1105.9844
 Red. masses --      2.0497                 1.2981                 1.2072
 Frc consts  --      1.4020                 0.9115                 0.8700
 IR Inten    --     27.8605                 4.2154                 6.6595

                     34                     35                     36
                      A                      A                      A
 Frequencies --   1125.4865              1138.1838              1252.7065
 Red. masses --      2.2112                 1.1639                 8.0331
 Frc consts  --      1.6503                 0.8883                 7.4274
 IR Inten    --      3.9544                 0.2609               229.5699

                     37                     38                     39
                      A                      A                      A
 Frequencies --   1285.7464              1316.2190              1334.8518
 Red. masses --      1.7989                 1.5065                 1.7940
 Frc consts  --      1.7521                 1.5377                 1.8834
 IR Inten    --      4.3929                 0.8298                 0.0525

                     40                     41                     42
                      A                      A                      A
 Frequencies --   1370.3763              1432.8405              1467.9715
 Red. masses --      3.1261                 3.5724                 1.1418
 Frc consts  --      3.4588                 4.3212                 1.4497
 IR Inten    --     16.0047                 3.2201                16.0217

                     43                     44                     45
                      A                      A                      A
 Frequencies --   1491.5580              1491.7916              1820.9358
 Red. masses --      3.0541                 2.9899                12.7114
 Frc consts  --      4.0033                 3.9203                24.8332
 IR Inten    --     12.5594                 4.7974               694.6648

                     46                     47                     48
                      A                      A                      A
 Frequencies --   1882.0949              3013.4258              3122.8949
 Red. masses --     12.5689                 1.0708                 1.0912
 Frc consts  --     26.2320                 5.7292                 6.2702
 IR Inten    --    295.3021                 3.7541                13.5624

                     49                     50                     51
                      A                      A                      A
 Frequencies --   3205.4723              3211.5015              3220.1864
 Red. masses --      1.0882                 1.0923                 1.0950
 Frc consts  --      6.5877                 6.6374                 6.6897
 IR Inten    --      1.2888                 0.8569                 1.9135

                     52                     53                     54
                      A                      A                      A
 Frequencies --   3226.2056              3232.4513              3239.0883
 Red. masses --      1.0896                 1.1035                 1.0978
 Frc consts  --      6.6822                 6.7934                 6.7858
 IR Inten    --      0.8122                 0.3146                 0.3333

 - Thermochemistry -
 -------------------
 Temperature   298.150 Kelvin.  Pressure   1.00000 Atm.
 Atom     1 has atomic number  6 and mass  12.00000

 Molecular mass:   164.04734 amu.
 Principal axes and moments of inertia in atomic units:
                           1         2         3
     Eigenvalues --  1285.855801683.927302269.98257
           X            0.99346   0.03634   0.10829
           Y           -0.03353   0.99905  -0.02770
           Z           -0.10919   0.02389   0.99373
 This molecule is an asymmetric top.
 Rotational symmetry number  1.
 Warning -- assumption of classical behavior for rotation
           may cause significant error
 Rotational temperatures (Kelvin)      0.06736     0.05144     0.03816
 Rotational constants (GHZ):           1.40353     1.07175     0.79505
    1 imaginary frequencies ignored.
 Zero-point vibrational energy     396184.0 (Joules/Mol)
                                   94.69025 (Kcal/Mol)
 Warning -- explicit consideration of  11 degrees of freedom as
           vibrations may cause significant error
 Vibrational temperatures:    116.12   178.45   184.39   255.77   265.13
          (Kelvin)            422.46   576.56   619.76   676.55   816.68
                              886.48   898.27  1035.63  1072.72  1105.09
                             1119.40  1149.97  1169.67  1222.07  1238.84
                             1278.45  1288.43  1314.32  1346.56  1406.11
                             1407.12  1427.86  1435.67  1536.83  1550.23
                             1570.73  1591.26  1619.32  1637.59  1802.37
                             1849.90  1893.75  1920.55  1971.67  2061.54
                             2112.08  2146.02  2146.36  2619.92  2707.91
                             4335.65  4493.15  4611.96  4620.63  4633.13
                             4641.79  4650.78  4660.33

 Zero-point correction=                           0.150899 (Hartree/Particle)
 Thermal correction to Energy=                    0.160047
 Thermal correction to Enthalpy=                  0.160991
 Thermal correction to Gibbs Free Energy=         0.116197
 Sum of electronic and zero-point Energies=           -573.454103
 Sum of electronic and thermal Energies=              -573.444955
 Sum of electronic and thermal Enthalpies=            -573.444011
 Sum of electronic and thermal Free Energies=         -573.488805

                     E (Thermal)             CV                S
                      KCal/Mol        Cal/Mol-Kelvin    Cal/Mol-Kelvin
 Total                  100.431             36.098             94.278
 Electronic               0.000              0.000              0.000
 Translational            0.889              2.981             41.193
 Rotational               0.889              2.981             29.976
 Vibrational             98.654             30.136             23.109
 Vibration     1          0.600              1.962              3.874
 Vibration     2          0.610              1.929              3.037
 Vibration     3          0.611              1.925              2.974
 Vibration     4          0.628              1.870              2.352
 Vibration     5          0.631              1.861              2.285
 Vibration     6          0.688              1.686              1.453
 Vibration     7          0.767              1.469              0.960
 Vibration     8          0.792              1.403              0.856
 Vibration     9          0.827              1.316              0.737
 Vibration    10          0.924              1.101              0.509
 Vibration    11          0.976              0.998              0.423

 Optimization completed.
    -- Stationary point found.
 Normal termination of Gaussian 16 at Sun Jun 12 02:34:04 2022.
