 Gaussian 16, Revision A.03,
 Gaussian 16:  ES64L-G16RevA.03 25-Dec-2016

 ----------------------------------------------------------------------
 # Opt=(Z-matrix, MaxStep=10) B3LYP/Def2TZVP Field=read NoSymm freq=nor
 aman pop=none
 ----------------------------------------------------------------------

 ------------------
 int_zmat_initalOpt
 ------------------
 Symbolic Z-matrix:
 Charge =  0 Multiplicity = 1

 SCF Done:  E(RB3LYP) =  -669.472367342     A.U. after   16 cycles
 SCF Done:  E(RB3LYP) =  -669.472415630     A.U. after   11 cycles
 SCF Done:  E(RB3LYP) =  -669.472427782     A.U. after   12 cycles
 SCF Done:  E(RB3LYP) =  -669.472418971     A.U. after   13 cycles
 SCF Done:  E(RB3LYP) =  -669.472436498     A.U. after   11 cycles
 SCF Done:  E(RB3LYP) =  -669.472410539     A.U. after   13 cycles
 SCF Done:  E(RB3LYP) =  -669.472438242     A.U. after   11 cycles
 SCF Done:  E(RB3LYP) =  -669.472439184     A.U. after    9 cycles
 SCF Done:  E(RB3LYP) =  -669.472439828     A.U. after   10 cycles
 SCF Done:  E(RB3LYP) =  -669.472440208     A.U. after   10 cycles
 Optimization completed.
    -- Stationary point found.
 Normal termination of Gaussian 16 at Fri Jun 10 04:50:06 2022.

 --------------------------------------------------------------------
 #N Geom=AllCheck Guess=TCheck SCRF=Check GenChk RB3LYP/def2TZVP Freq
 --------------------------------------------------------------------

 Structure from the checkpoint file:  "checkpoint.chk"
 ------------------
 int_zmat_initalOpt
 ------------------
 Charge =  0 Multiplicity = 1

                          Input orientation:
 ---------------------------------------------------------------------
 Center     Atomic      Atomic             Coordinates (Angstroms)
 Number     Number       Type             X           Y           Z
 ---------------------------------------------------------------------
      1          6           0        0.000000    0.000000    0.000000
      2          6           0        0.000000    0.000000    1.507553
      3          6           0        1.211895    0.000000   -0.551341
      4          1           0       -0.925637    0.011987   -0.561287
      5          6           0        2.343319   -0.028696    0.442516
      6          6           0        0.788721   -1.272339    1.981168
      7          1           0       -1.001193   -0.012128    1.930006
      8          6           0        0.801943    1.239516    1.985970
      9          1           0        1.387447    0.011638   -1.620173
     10          6           0        2.174516   -1.283712    1.336840
     11          1           0        3.318845   -0.050000   -0.043170
     12          6           0        2.214144    1.220643    1.350870
     13          1           0        0.859860    1.250380    3.075896
     14          1           0        0.252374    2.134614    1.692962
     15          7           0       -0.136139   -2.448518    1.581679
     16          6           0        0.835939   -1.372609    3.514159
     17          1           0        2.940226   -1.307574    2.110301
     18          1           0        2.280728   -2.189973    0.739084
     19          1           0        2.985595    1.184085    2.122338
     20          1           0        2.387609    2.124425    0.765674
     21          8           0        0.334057   -3.238059    0.825701
     22          8           0        1.830772   -1.609955    4.147890
     23          8           0       -0.372148   -1.188821    4.060890
     24          6           0       -0.440246   -1.310618    5.495695
     25          1           0       -1.483923   -1.151915    5.750367
     26          1           0       -0.112879   -2.301347    5.806661
     27          1           0        0.190112   -0.560046    5.969985
 ---------------------------------------------------------------------

 SCF Done:  E(RB3LYP) =  -669.472440208     A.U. after    1 cycles

 Isotropic polarizability for W=    0.000000      124.66 Bohr**3.
 End of Minotr F.D. properties file   721 does not exist.

                      1                      2                      3
                      A                      A                      A
 Frequencies --     36.9578                46.4710                75.9399
 Red. masses --      7.2128                 6.7428                 3.8828
 Frc consts  --      0.0058                 0.0086                 0.0132
 IR Inten    --      1.3047                 0.6449                 0.2466

                      4                      5                      6
                      A                      A                      A
 Frequencies --    116.4927               136.5852               165.7784
 Red. masses --      2.8535                 1.1765                 3.8938
 Frc consts  --      0.0228                 0.0129                 0.0630
 IR Inten    --      1.2350                 0.0481                 2.3632

                      7                      8                      9
                      A                      A                      A
 Frequencies --    217.1065               233.6103               270.4100
 Red. masses --      5.1033                 2.0239                 5.7431
 Frc consts  --      0.1417                 0.0651                 0.2474
 IR Inten    --      1.5424                 0.8479                 6.5146

                     10                     11                     12
                      A                      A                      A
 Frequencies --    324.9192               335.6551               353.5362
 Red. masses --      4.1832                 5.9214                 4.4285
 Frc consts  --      0.2602                 0.3931                 0.3261
 IR Inten    --     12.3276                 5.3947                 1.4612

                     13                     14                     15
                      A                      A                      A
 Frequencies --    375.7360               400.9648               453.9271
 Red. masses --      2.9776                 2.0836                 4.3948
 Frc consts  --      0.2477                 0.1974                 0.5335
 IR Inten    --      2.1798                 3.6845                 7.6264

                     16                     17                     18
                      A                      A                      A
 Frequencies --    476.8030               593.8613               629.8043
 Red. masses --      4.6233                 5.0501                 5.2727
 Frc consts  --      0.6193                 1.0493                 1.2322
 IR Inten    --      5.5590                 6.6872                 8.7150

                     19                     20                     21
                      A                      A                      A
 Frequencies --    648.0522               676.8312               718.7631
 Red. masses --      4.7259                 3.3073                 3.3229
 Frc consts  --      1.1694                 0.8927                 1.0114
 IR Inten    --      0.0239                 2.0119                41.4351

                     22                     23                     24
                      A                      A                      A
 Frequencies --    733.4642               775.7562               825.9465
 Red. masses --      2.2959                 3.7799                 3.5442
 Frc consts  --      0.7277                 1.3402                 1.4245
 IR Inten    --     20.3107                 8.1456                 9.8419

                     25                     26                     27
                      A                      A                      A
 Frequencies --    828.4503               844.1575               875.7776
 Red. masses --      1.5896                 3.3403                 2.6357
 Frc consts  --      0.6428                 1.4024                 1.1911
 IR Inten    --      3.2871                32.4569                10.2205

                     28                     29                     30
                      A                      A                      A
 Frequencies --    904.2474               951.8987               966.3383
 Red. masses --      3.2707                 2.6050                 1.4071
 Frc consts  --      1.5757                 1.3907                 0.7742
 IR Inten    --     21.6787                 7.0107                 0.7881

                     31                     32                     33
                      A                      A                      A
 Frequencies --    974.1827               983.5983               993.4833
 Red. masses --      2.0898                 4.4121                 2.6248
 Frc consts  --      1.1685                 2.5150                 1.5264
 IR Inten    --      0.5036                 4.5017                 0.8634

                     34                     35                     36
                      A                      A                      A
 Frequencies --   1019.3636              1033.6194              1064.1315
 Red. masses --      2.6898                 4.2045                 2.9281
 Frc consts  --      1.6467                 2.6466                 1.9535
 IR Inten    --      1.9467                 6.0815                 0.8100

                     37                     38                     39
                      A                      A                      A
 Frequencies --   1108.5343              1114.4370              1149.1966
 Red. masses --      1.9030                 2.1461                 1.1019
 Frc consts  --      1.3778                 1.5704                 0.8574
 IR Inten    --     20.2623                52.5028                 4.7991

                     40                     41                     42
                      A                      A                      A
 Frequencies --   1172.1446              1195.0917              1198.9064
 Red. masses --      1.2786                 1.6024                 1.1925
 Frc consts  --      1.0350                 1.3484                 1.0099
 IR Inten    --      1.3830               117.2472                 5.1306

                     43                     44                     45
                      A                      A                      A
 Frequencies --   1214.3901              1245.4708              1254.5188
 Red. masses --      1.6117                 1.2485                 1.6543
 Frc consts  --      1.4004                 1.1410                 1.5339
 IR Inten    --     47.5187                 9.4918               117.6130

                     46                     47                     48
                      A                      A                      A
 Frequencies --   1269.0867              1283.8789              1312.1839
 Red. masses --      1.7435                 1.6523                 1.4073
 Frc consts  --      1.6545                 1.6047                 1.4277
 IR Inten    --     81.0491                26.2823                15.5573

                     49                     50                     51
                      A                      A                      A
 Frequencies --   1337.6378              1341.4839              1369.4022
 Red. masses --      1.3109                 1.4362                 1.3876
 Frc consts  --      1.3820                 1.5227                 1.5331
 IR Inten    --      2.1392                 2.7708                 0.2512

                     52                     53                     54
                      A                      A                      A
 Frequencies --   1379.7831              1402.3020              1472.7507
 Red. masses --      1.6219                 1.6873                 1.1892
 Frc consts  --      1.8192                 1.9549                 1.5197
 IR Inten    --      0.9846                 6.6586                11.5333

                     55                     56                     57
                      A                      A                      A
 Frequencies --   1485.4442              1492.5239              1495.8894
 Red. masses --      1.0457                 1.0761                 1.0477
 Frc consts  --      1.3594                 1.4124                 1.3812
 IR Inten    --      9.5031                 1.5813                 9.7758

                     58                     59                     60
                      A                      A                      A
 Frequencies --   1499.7624              1514.3794              1665.0970
 Red. masses --      1.0815                 1.0930                12.5877
 Frc consts  --      1.4333                 1.4768                20.5625
 IR Inten    --      9.9485                 5.2100               151.2743

                     61                     62                     63
                      A                      A                      A
 Frequencies --   1677.0269              1785.1756              3044.6166
 Red. masses --      6.0454                11.7630                 1.0602
 Frc consts  --     10.0174                22.0868                 5.7905
 IR Inten    --     22.8752               198.1115                20.9319

                     64                     65                     66
                      A                      A                      A
 Frequencies --   3055.4531              3060.4009              3065.8237
 Red. masses --      1.0609                 1.0292                 1.0643
 Frc consts  --      5.8356                 5.6795                 5.8939
 IR Inten    --     36.3861                26.4544                 2.8165

                     67                     68                     69
                      A                      A                      A
 Frequencies --   3074.6892              3080.3559              3095.4703
 Red. masses --      1.1051                 1.0845                 1.1055
 Frc consts  --      6.1556                 6.0630                 6.2413
 IR Inten    --      0.0542                48.1371                39.4965

                     70                     71                     72
                      A                      A                      A
 Frequencies --   3114.3119              3121.9755              3134.1017
 Red. masses --      1.1002                 1.0866                 1.1073
 Frc consts  --      6.2869                 6.2402                 6.4081
 IR Inten    --      1.5992                 8.2087                12.2459

                     73                     74                     75
                      A                      A                      A
 Frequencies --   3164.2952              3164.5789              3188.0629
 Red. masses --      1.1069                 1.0857                 1.1011
 Frc consts  --      6.5301                 6.4058                 6.5935
 IR Inten    --     10.7674                 9.8320                25.1692

 - Thermochemistry -
 -------------------
 Temperature   298.150 Kelvin.  Pressure   1.00000 Atm.
 Atom     1 has atomic number  6 and mass  12.00000

 Molecular mass:   195.08954 amu.
 Principal axes and moments of inertia in atomic units:
                           1         2         3
     Eigenvalues --  1609.334082882.317413373.44198
           X           -0.25952   0.26863   0.92763
           Y           -0.34558   0.87110  -0.34894
           Z            0.90179   0.41112   0.13324
 This molecule is an asymmetric top.
 Rotational symmetry number  1.
 Warning -- assumption of classical behavior for rotation
           may cause significant error
 Rotational temperatures (Kelvin)      0.05382     0.03005     0.02568
 Rotational constants (GHZ):           1.12142     0.62614     0.53499
 Zero-point vibrational energy     579370.9 (Joules/Mol)
                                  138.47297 (Kcal/Mol)
 Warning -- explicit consideration of  17 degrees of freedom as
           vibrations may cause significant error
 Vibrational temperatures:     53.17    66.86   109.26   167.61   196.52
          (Kelvin)            238.52   312.37   336.11   389.06   467.49
                              482.93   508.66   540.60   576.90   653.10
                              686.01   854.43   906.15   932.40   973.81
                             1034.14  1055.29  1116.14  1188.35  1191.96
                             1214.55  1260.05  1301.01  1369.57  1390.35
                             1401.63  1415.18  1429.40  1466.64  1487.15
                             1531.05  1594.93  1603.43  1653.44  1686.45
                             1719.47  1724.96  1747.24  1791.95  1804.97
                             1825.93  1847.22  1887.94  1924.56  1930.10
                             1970.26  1985.20  2017.60  2118.96  2137.22
                             2147.41  2152.25  2157.82  2178.85  2395.70
                             2412.87  2568.47  4380.52  4396.12  4403.23
                             4411.04  4423.79  4431.95  4453.69  4480.80
                             4491.83  4509.27  4552.72  4553.12  4586.91

 Zero-point correction=                           0.220671 (Hartree/Particle)
 Thermal correction to Energy=                    0.233504
 Thermal correction to Enthalpy=                  0.234448
 Thermal correction to Gibbs Free Energy=         0.180783
 Sum of electronic and zero-point Energies=           -669.251769
 Sum of electronic and thermal Energies=              -669.238936
 Sum of electronic and thermal Enthalpies=            -669.237992
 Sum of electronic and thermal Free Energies=         -669.291657

                     E (Thermal)             CV                S
                      KCal/Mol        Cal/Mol-Kelvin    Cal/Mol-Kelvin
 Total                  146.526             48.929            112.948
 Electronic               0.000              0.000              0.000
 Translational            0.889              2.981             41.710
 Rotational               0.889              2.981             31.126
 Vibrational            144.748             42.967             40.111
 Vibration     1          0.594              1.982              5.416
 Vibration     2          0.595              1.979              4.962
 Vibration     3          0.599              1.965              3.993
 Vibration     4          0.608              1.936              3.158
 Vibration     5          0.614              1.917              2.851
 Vibration     6          0.624              1.885              2.483
 Vibration     7          0.646              1.815              1.983
 Vibration     8          0.654              1.789              1.851
 Vibration     9          0.674              1.728              1.594
 Vibration    10          0.709              1.626              1.285
 Vibration    11          0.717              1.604              1.233
 Vibration    12          0.730              1.568              1.150
 Vibration    13          0.747              1.522              1.056
 Vibration    14          0.767              1.468              0.959
 Vibration    15          0.812              1.352              0.784
 Vibration    16          0.833              1.302              0.719
 Vibration    17          0.951              1.045              0.460

                       ! Non-Optimized Parameters !
 Normal termination of Gaussian 16 at Fri Jun 10 05:35:40 2022.
