 Gaussian 16, Revision A.03,
 Gaussian 16:  ES64L-G16RevA.03 25-Dec-2016

 ----------------------------------------------------------------------
 # Opt=(TS, CalcFC, noeigentest, Z-matrix, MaxStep=10) geom=allcheckpoi
 nt guess=read Field=read NoSymm B3LYP/Def2TZVP freq=noraman pop=none
 ----------------------------------------------------------------------

 Structure from the checkpoint file:  "checkpoint.chk"
 -----------------
 ts_zmat_initalOpt
 -----------------
 Charge =  0 Multiplicity = 1

 SCF Done:  E(RB3LYP) =  -269.396097144     A.U. after   11 cycles
 SCF Done:  E(RB3LYP) =  -269.396123430     A.U. after   12 cycles
 Optimization completed.
    -- Stationary point found.
 Normal termination of Gaussian 16 at Fri Jun 10 03:34:34 2022.

 --------------------------------------------------------------------
 #N Geom=AllCheck Guess=TCheck SCRF=Check GenChk RB3LYP/def2TZVP Freq
 --------------------------------------------------------------------

 Structure from the checkpoint file:  "checkpoint.chk"
 -----------------
 ts_zmat_initalOpt
 -----------------
 Charge =  0 Multiplicity = 1

                          Input orientation:
 ---------------------------------------------------------------------
 Center     Atomic      Atomic             Coordinates (Angstroms)
 Number     Number       Type             X           Y           Z
 ---------------------------------------------------------------------
      1          1           0        0.000000    0.000000    0.000000
      2          6           0        0.000000    0.000000    1.082561
      3          6           0        1.192654    0.000000    1.783218
      4          6           0       -1.178089    0.169543    1.808955
      5          1           0        2.114979   -0.268710    1.278659
      6          6           0        1.282926    0.588448    3.056563
      7          1           0       -2.095263    0.451319    1.306814
      8          1           0       -1.307477   -0.402660    2.717675
      9          1           0        2.249066    0.650229    3.539424
     10          6           0        0.332593    1.551902    3.433176
     11          1           0        0.713706    2.386030    4.035556
     12          8           0       -0.866148    1.661380    3.046039
 ---------------------------------------------------------------------

 SCF Done:  E(RB3LYP) =  -269.396123430     A.U. after    1 cycles

 Isotropic polarizability for W=    0.000000       65.33 Bohr**3.
 End of Minotr F.D. properties file   721 does not exist.

 ******    1 imaginary frequencies (negative Signs) ******

                      1                      2                      3
                      A                      A                      A
 Frequencies --   -521.7506               226.1548               376.2517
 Red. masses --      5.5380                 2.8636                 2.5843
 Frc consts  --      0.8882                 0.0863                 0.2156
 IR Inten    --     46.5185                 4.4067                10.8673

                      4                      5                      6
                      A                      A                      A
 Frequencies --    420.1159               575.2528               590.2136
 Red. masses --      4.4482                 2.6912                 3.8703
 Frc consts  --      0.4626                 0.5247                 0.7944
 IR Inten    --      4.9819                25.0841                 3.0160

                      7                      8                      9
                      A                      A                      A
 Frequencies --    736.1589               792.2288               889.5934
 Red. masses --      1.2398                 1.3880                 2.0668
 Frc consts  --      0.3959                 0.5133                 0.9637
 IR Inten    --     45.0149                23.3400                26.1388

                     10                     11                     12
                      A                      A                      A
 Frequencies --    956.9036               960.9336               981.9894
 Red. masses --      1.6562                 1.4643                 1.3942
 Frc consts  --      0.8935                 0.7967                 0.7921
 IR Inten    --     34.2123                12.4175                 9.5016

                     13                     14                     15
                      A                      A                      A
 Frequencies --   1015.9618              1044.8205              1097.9463
 Red. masses --      3.5134                 1.7316                 1.3261
 Frc consts  --      2.1367                 1.1137                 0.9419
 IR Inten    --     14.5752                 5.6776                14.9277

                     16                     17                     18
                      A                      A                      A
 Frequencies --   1120.2672              1182.9194              1247.5104
 Red. masses --      1.5801                 1.2419                 1.3326
 Frc consts  --      1.1684                 1.0239                 1.2219
 IR Inten    --      1.1905                14.5723                 3.6392

                     19                     20                     21
                      A                      A                      A
 Frequencies --   1343.6856              1409.0181              1439.5502
 Red. masses --      1.3707                 1.8732                 1.8270
 Frc consts  --      1.4581                 2.1911                 2.2307
 IR Inten    --     44.2002                54.7277                59.3405

                     22                     23                     24
                      A                      A                      A
 Frequencies --   1495.8254              1549.6530              1616.6628
 Red. masses --      1.7475                 2.1716                 5.4998
 Frc consts  --      2.3038                 3.0725                 8.4690
 IR Inten    --      5.3758                19.7227               123.5427

                     25                     26                     27
                      A                      A                      A
 Frequencies --   3018.9351              3132.4498              3157.6163
 Red. masses --      1.0849                 1.0577                 1.0879
 Frc consts  --      5.8257                 6.1148                 6.3906
 IR Inten    --     49.5531                24.4762                 3.0052

                     28                     29                     30
                      A                      A                      A
 Frequencies --   3184.3809              3189.4240              3218.5673
 Red. masses --      1.0914                 1.0928                 1.1163
 Frc consts  --      6.5208                 6.5497                 6.8135
 IR Inten    --      0.7927                 8.8496                 5.8077

 - Thermochemistry -
 -------------------
 Temperature   298.150 Kelvin.  Pressure   1.00000 Atm.
 Atom     1 has atomic number  1 and mass   1.00783

 Molecular mass:    82.04186 amu.
 Principal axes and moments of inertia in atomic units:
                           1         2         3
     Eigenvalues --   326.13665 385.83786 669.17670
           X           -0.09586   0.97565   0.19725
           Y            0.62617  -0.09494   0.77389
           Z            0.77377   0.19770  -0.60182
 This molecule is an asymmetric top.
 Rotational symmetry number  1.
 Rotational temperatures (Kelvin)      0.26558     0.22448     0.12943
 Rotational constants (GHZ):           5.53370     4.67746     2.69696
    1 imaginary frequencies ignored.
 Zero-point vibrational energy     251042.3 (Joules/Mol)
                                   60.00054 (Kcal/Mol)
 Warning -- explicit consideration of   5 degrees of freedom as
           vibrations may cause significant error
 Vibrational temperatures:    325.39   541.34   604.45   827.66   849.19
          (Kelvin)           1059.17  1139.84  1279.93  1376.77  1382.57
                             1412.86  1461.74  1503.26  1579.70  1611.81
                             1701.96  1794.89  1933.26  2027.26  2071.19
                             2152.16  2229.61  2326.02  4343.57  4506.90
                             4543.11  4581.61  4588.87  4630.80

 Zero-point correction=                           0.095617 (Hartree/Particle)
 Thermal correction to Energy=                    0.100475
 Thermal correction to Enthalpy=                  0.101420
 Thermal correction to Gibbs Free Energy=         0.067555
 Sum of electronic and zero-point Energies=           -269.300506
 Sum of electronic and thermal Energies=              -269.295648
 Sum of electronic and thermal Enthalpies=            -269.294704
 Sum of electronic and thermal Free Energies=         -269.328568

                     E (Thermal)             CV                S
                      KCal/Mol        Cal/Mol-Kelvin    Cal/Mol-Kelvin
 Total                   63.049             18.173             71.274
 Electronic               0.000              0.000              0.000
 Translational            0.889              2.981             39.128
 Rotational               0.889              2.981             25.935
 Vibrational             61.272             12.212              6.211
 Vibration     1          0.650              1.801              1.909
 Vibration     2          0.747              1.521              1.054
 Vibration     3          0.783              1.427              0.892
 Vibration     4          0.932              1.085              0.494
 Vibration     5          0.948              1.053              0.467

 Optimization completed.
    -- Stationary point found.
 Normal termination of Gaussian 16 at Fri Jun 10 03:37:08 2022.
