 Gaussian 16, Revision A.03,
 Gaussian 16:  ES64L-G16RevA.03 25-Dec-2016

 ----------------------------------------------------------------------
 # Opt=(Z-matrix, MaxStep=10) B3LYP/Def2TZVP geom=allcheckpoint guess=r
 ead Field=read NoSymm freq=noraman pop=none
 ----------------------------------------------------------------------

 Structure from the checkpoint file:  "checkpoint.chk"
 ------------------
 int_zmat_initalOpt
 ------------------
 Charge =  0 Multiplicity = 1

 SCF Done:  E(RB3LYP) =  -195.372254016     A.U. after   10 cycles
 SCF Done:  E(RB3LYP) =  -195.372259012     A.U. after    7 cycles
 SCF Done:  E(RB3LYP) =  -195.372260556     A.U. after    7 cycles
 SCF Done:  E(RB3LYP) =  -195.372261967     A.U. after    7 cycles
 SCF Done:  E(RB3LYP) =  -195.372263302     A.U. after    7 cycles
 SCF Done:  E(RB3LYP) =  -195.372264377     A.U. after    7 cycles
 SCF Done:  E(RB3LYP) =  -195.372265259     A.U. after    7 cycles
 SCF Done:  E(RB3LYP) =  -195.372265849     A.U. after    7 cycles
 SCF Done:  E(RB3LYP) =  -195.372266183     A.U. after    7 cycles
 Optimization completed.
    -- Stationary point found.
 Normal termination of Gaussian 16 at Sat Jun 11 00:06:14 2022.

 --------------------------------------------------------------------
 #N Geom=AllCheck Guess=TCheck SCRF=Check GenChk RB3LYP/def2TZVP Freq
 --------------------------------------------------------------------

 Structure from the checkpoint file:  "checkpoint.chk"
 ------------------
 int_zmat_initalOpt
 ------------------
 Charge =  0 Multiplicity = 1

                          Input orientation:
 ---------------------------------------------------------------------
 Center     Atomic      Atomic             Coordinates (Angstroms)
 Number     Number       Type             X           Y           Z
 ---------------------------------------------------------------------
      1          1           0        0.000000    0.000000    0.000000
      2          6           0        0.000000    0.000000    1.084444
      3          1           0        0.969177    0.000000    1.568000
      4          6           0       -1.134861    0.019706    1.780770
      5          1           0       -2.074566    0.041682    1.230051
      6          6           0       -1.285135   -0.000142    3.250713
      7          1           0       -2.078300    0.643546    3.614617
      8          6           0       -0.134416   -0.218534    4.192581
      9          6           0       -1.146575   -1.307986    4.019480
     10          1           0       -0.136372    0.336085    5.120576
     11          1           0        0.851129   -0.377320    3.776790
     12          1           0       -1.844045   -1.499884    4.823011
     13          1           0       -0.852331   -2.181084    3.452067
 ---------------------------------------------------------------------

 SCF Done:  E(RB3LYP) =  -195.372266183     A.U. after    1 cycles

 Isotropic polarizability for W=    0.000000       58.80 Bohr**3.
 End of Minotr F.D. properties file   721 does not exist.

                      1                      2                      3
                      A                      A                      A
 Frequencies --     77.0661               268.9518               296.3939
 Red. masses --      1.9750                 2.6628                 1.8253
 Frc consts  --      0.0069                 0.1135                 0.0945
 IR Inten    --      0.5819                 1.0111                 0.7980

                      4                      5                      6
                      A                      A                      A
 Frequencies --    537.0007               663.4871               761.3438
 Red. masses --      2.0780                 1.6097                 1.7903
 Frc consts  --      0.3531                 0.4175                 0.6114
 IR Inten    --      0.8315                15.5651                 3.0393

                      7                      8                      9
                      A                      A                      A
 Frequencies --    814.1479               835.7019               895.0618
 Red. masses --      1.2691                 1.4978                 1.5941
 Frc consts  --      0.4956                 0.6163                 0.7525
 IR Inten    --      0.3236                 6.9048                33.6260

                     10                     11                     12
                      A                      A                      A
 Frequencies --    911.0679               945.0512              1023.0116
 Red. masses --      1.9282                 2.5078                 1.1060
 Frc consts  --      0.9430                 1.3197                 0.6820
 IR Inten    --     14.9528                17.7414                18.0096

                     13                     14                     15
                      A                      A                      A
 Frequencies --   1055.6594              1091.1021              1093.3900
 Red. masses --      1.1756                 1.3004                 1.5587
 Frc consts  --      0.7719                 0.9121                 1.0979
 IR Inten    --      7.0814                15.2598                 0.4278

                     16                     17                     18
                      A                      A                      A
 Frequencies --   1119.0596              1132.3016              1204.3632
 Red. masses --      1.5065                 1.2273                 1.3719
 Frc consts  --      1.1115                 0.9271                 1.1725
 IR Inten    --      2.0548                 0.7434                 2.7506

                     19                     20                     21
                      A                      A                      A
 Frequencies --   1228.9537              1332.3068              1408.4351
 Red. masses --      1.9109                 1.2743                 1.5015
 Frc consts  --      1.7004                 1.3327                 1.7549
 IR Inten    --      3.8897                 0.7218                 0.4538

                     22                     23                     24
                      A                      A                      A
 Frequencies --   1452.9060              1475.2947              1508.9558
 Red. masses --      1.3069                 1.0958                 1.3051
 Frc consts  --      1.6254                 1.4052                 1.7509
 IR Inten    --      4.4789                 5.3362                 4.7670

                     25                     26                     27
                      A                      A                      A
 Frequencies --   1690.3396              3093.5033              3127.1053
 Red. masses --      4.3574                 1.0822                 1.0645
 Frc consts  --      7.3354                 6.1017                 6.1333
 IR Inten    --     48.2109                31.7444                28.3714

                     28                     29                     30
                      A                      A                      A
 Frequencies --   3134.4556              3140.9568              3144.2561
 Red. masses --      1.0529                 1.0841                 1.0596
 Frc consts  --      6.0948                 6.3014                 6.1722
 IR Inten    --     14.0546                11.5216                 5.2068

                     31                     32                     33
                      A                      A                      A
 Frequencies --   3203.0710              3215.3903              3229.3549
 Red. masses --      1.1130                 1.1190                 1.1164
 Frc consts  --      6.7281                 6.8164                 6.8599
 IR Inten    --     27.3382                 1.6692                 6.0713

 - Thermochemistry -
 -------------------
 Temperature   298.150 Kelvin.  Pressure   1.00000 Atm.
 Atom     1 has atomic number  1 and mass   1.00783

 Molecular mass:    68.06260 amu.
 Principal axes and moments of inertia in atomic units:
                           1         2         3
     Eigenvalues --   156.37855 492.94252 539.09255
           X           -0.13629   0.97226  -0.19011
           Y           -0.24709   0.15247   0.95692
           Z            0.95936   0.17739   0.21946
 This molecule is an asymmetric top.
 Rotational symmetry number  1.
 Rotational temperatures (Kelvin)      0.55387     0.17571     0.16067
 Rotational constants (GHZ):          11.54085     3.66116     3.34774
 Zero-point vibrational energy     299721.0 (Joules/Mol)
                                   71.63505 (Kcal/Mol)
 Warning -- explicit consideration of   4 degrees of freedom as
           vibrations may cause significant error
 Vibrational temperatures:    110.88   386.96   426.44   772.62   954.61
          (Kelvin)           1095.40  1171.38  1202.39  1287.79  1310.82
                             1359.72  1471.89  1518.86  1569.85  1573.14
                             1610.08  1629.13  1732.81  1768.19  1916.89
                             2026.42  2090.41  2122.62  2171.05  2432.02
                             4450.86  4499.21  4509.78  4519.14  4523.88
                             4608.50  4626.23  4646.32

 Zero-point correction=                           0.114158 (Hartree/Particle)
 Thermal correction to Energy=                    0.119594
 Thermal correction to Enthalpy=                  0.120538
 Thermal correction to Gibbs Free Energy=         0.085708
 Sum of electronic and zero-point Energies=           -195.258108
 Sum of electronic and thermal Energies=              -195.252673
 Sum of electronic and thermal Enthalpies=            -195.251728
 Sum of electronic and thermal Free Energies=         -195.286559

                     E (Thermal)             CV                S
                      KCal/Mol        Cal/Mol-Kelvin    Cal/Mol-Kelvin
 Total                   75.046             19.446             73.306
 Electronic               0.000              0.000              0.000
 Translational            0.889              2.981             38.571
 Rotational               0.889              2.981             25.233
 Vibrational             73.269             13.485              9.502
 Vibration     1          0.599              1.964              3.964
 Vibration     2          0.673              1.730              1.603
 Vibration     3          0.690              1.680              1.437
 Vibration     4          0.892              1.168              0.572

                       ! Non-Optimized Parameters !
 Normal termination of Gaussian 16 at Sat Jun 11 00:08:33 2022.
