 Gaussian 16, Revision A.03,
 Gaussian 16:  ES64L-G16RevA.03 25-Dec-2016

 ----------------------------------------------------------------------
 # Opt=(Z-matrix, MaxStep=10) B3LYP/Def2TZVP geom=allcheckpoint guess=r
 ead Field=read NoSymm freq=noraman pop=none
 ----------------------------------------------------------------------

 Structure from the checkpoint file:  "checkpoint.chk"
 ------------------
 int_zmat_initalOpt
 ------------------
 Charge =  0 Multiplicity = 1

 SCF Done:  E(RB3LYP) =  -439.164691817     A.U. after   11 cycles
 SCF Done:  E(RB3LYP) =  -439.164731703     A.U. after   11 cycles
 SCF Done:  E(RB3LYP) =  -439.164759186     A.U. after   12 cycles
 SCF Done:  E(RB3LYP) =  -439.164765035     A.U. after   10 cycles
 SCF Done:  E(RB3LYP) =  -439.164741620     A.U. after   12 cycles
 SCF Done:  E(RB3LYP) =  -439.164778078     A.U. after   11 cycles
 SCF Done:  E(RB3LYP) =  -439.164785896     A.U. after   10 cycles
 SCF Done:  E(RB3LYP) =  -439.164794270     A.U. after   11 cycles
 SCF Done:  E(RB3LYP) =  -439.164797095     A.U. after   11 cycles
 SCF Done:  E(RB3LYP) =  -439.164798371     A.U. after   10 cycles
 SCF Done:  E(RB3LYP) =  -439.164799863     A.U. after    8 cycles
 SCF Done:  E(RB3LYP) =  -439.164800984     A.U. after    8 cycles
 SCF Done:  E(RB3LYP) =  -439.164801493     A.U. after    7 cycles
 SCF Done:  E(RB3LYP) =  -439.164801680     A.U. after    8 cycles
 Optimization completed.
    -- Stationary point found.
 Normal termination of Gaussian 16 at Fri Jun 10 05:11:06 2022.

 --------------------------------------------------------------------
 #N Geom=AllCheck Guess=TCheck SCRF=Check GenChk RB3LYP/def2TZVP Freq
 --------------------------------------------------------------------

 Structure from the checkpoint file:  "checkpoint.chk"
 ------------------
 int_zmat_initalOpt
 ------------------
 Charge =  0 Multiplicity = 1

                          Input orientation:
 ---------------------------------------------------------------------
 Center     Atomic      Atomic             Coordinates (Angstroms)
 Number     Number       Type             X           Y           Z
 ---------------------------------------------------------------------
      1          6           0        0.000000    0.000000    0.000000
      2          6           0        0.000000    0.000000    1.456590
      3          6           0        0.952965    0.000000   -0.913528
      4          1           0       -0.963913    0.148763   -0.482473
      5          8           0        1.668395   -0.040515   -1.831227
      6          6           0        1.024766   -0.101784    2.328805
      7          1           0       -0.984365    0.164293    1.876331
      8          6           0        2.417277   -0.351988    2.071367
      9          1           0        0.767130    0.043456    3.373772
     10          6           0        3.088129   -1.026569    1.053888
     11          7           0        3.388397    0.052795    2.966261
     12          1           0        2.626288   -1.544517    0.230615
     13          6           0        4.468005   -1.002857    1.346962
     14          6           0        4.622818   -0.318202    2.533314
     15          1           0        3.220704    0.613529    3.785875
     16          1           0        5.265407   -1.439759    0.769937
     17          1           0        5.510746   -0.067990    3.089369
 ---------------------------------------------------------------------

 SCF Done:  E(RB3LYP) =  -439.164801680     A.U. after    1 cycles

 Isotropic polarizability for W=    0.000000      110.59 Bohr**3.
 End of Minotr F.D. properties file   721 does not exist.

                      1                      2                      3
                      A                      A                      A
 Frequencies --     44.3426                58.2214               126.7567
 Red. masses --      5.1617                 3.3269                 4.7421
 Frc consts  --      0.0060                 0.0066                 0.0449
 IR Inten    --      2.5770                 1.1537                 1.0898

                      4                      5                      6
                      A                      A                      A
 Frequencies --    169.7439               222.6075               315.3918
 Red. masses --      7.0246                 3.4326                 5.5423
 Frc consts  --      0.1193                 0.1002                 0.3248
 IR Inten    --      4.3181                 4.3551                 5.5801

                      7                      8                      9
                      A                      A                      A
 Frequencies --    448.9152               486.0923               537.2649
 Red. masses --      1.9265                 5.8978                 5.1880
 Frc consts  --      0.2287                 0.8211                 0.8823
 IR Inten    --     14.4373                17.8751                 2.8217

                     10                     11                     12
                      A                      A                      A
 Frequencies --    552.0927               576.5666               627.2225
 Red. masses --      1.5597                 2.3604                 2.4934
 Frc consts  --      0.2801                 0.4623                 0.5779
 IR Inten    --     34.2424                46.6675                 2.4077

                     13                     14                     15
                      A                      A                      A
 Frequencies --    644.5804               674.4200               737.2900
 Red. masses --      4.2327                 2.6608                 1.7041
 Frc consts  --      1.0362                 0.7131                 0.5458
 IR Inten    --     11.8409                11.0590                18.6165

                     16                     17                     18
                      A                      A                      A
 Frequencies --    752.4916               816.2937               846.4642
 Red. masses --      1.1807                 1.6088                 2.9737
 Frc consts  --      0.3939                 0.6316                 1.2554
 IR Inten    --     97.3285                 1.7127                30.1416

                     19                     20                     21
                      A                      A                      A
 Frequencies --    891.2785               895.7255               910.1166
 Red. masses --      1.3935                 5.0934                 4.1147
 Frc consts  --      0.6522                 2.4077                 2.0081
 IR Inten    --      1.2376                 0.7109                24.4989

                     22                     23                     24
                      A                      A                      A
 Frequencies --    937.5157               984.4155              1062.4736
 Red. masses --      1.2594                 2.6743                 1.3182
 Frc consts  --      0.6522                 1.5269                 0.8767
 IR Inten    --      2.5349                 4.0934                21.3129

                     25                     26                     27
                      A                      A                      A
 Frequencies --   1125.5885              1144.6558              1156.7763
 Red. masses --      1.8545                 1.4526                 1.5297
 Frc consts  --      1.3843                 1.1213                 1.2060
 IR Inten    --     12.9350                48.5766                13.1169

                     28                     29                     30
                      A                      A                      A
 Frequencies --   1239.8716              1259.7246              1309.2029
 Red. masses --      1.4973                 2.0432                 1.4499
 Frc consts  --      1.3562                 1.9104                 1.4642
 IR Inten    --      5.9499                 2.4864                 1.2396

                     31                     32                     33
                      A                      A                      A
 Frequencies --   1416.8049              1433.2315              1445.5166
 Red. masses --      2.4111                 2.6595                 2.7556
 Frc consts  --      2.8515                 3.2187                 3.3925
 IR Inten    --     10.4054                 0.9918                17.5926

                     34                     35                     36
                      A                      A                      A
 Frequencies --   1473.4024              1483.4593              1592.9891
 Red. masses --      2.3082                 3.2848                 3.2772
 Frc consts  --      2.9523                 4.2590                 4.8997
 IR Inten    --     15.1790                97.2531                 1.3802

                     37                     38                     39
                      A                      A                      A
 Frequencies --   1656.9567              2161.0417              3116.7613
 Red. masses --      6.3847                12.6681                 1.0808
 Frc consts  --     10.3279                34.8569                 6.1859
 IR Inten    --     52.6947               689.1623                10.1337

                     40                     41                     42
                      A                      A                      A
 Frequencies --   3137.6805              3172.9194              3242.7709
 Red. masses --      1.0854                 1.0901                 1.0897
 Frc consts  --      6.2959                 6.4661                 6.7516
 IR Inten    --      2.9857                17.0791                 7.9712

                     43                     44                     45
                      A                      A                      A
 Frequencies --   3255.0683              3269.4906              3629.2882
 Red. masses --      1.0950                 1.1047                 1.0810
 Frc consts  --      6.8359                 6.9576                 8.3893
 IR Inten    --      2.4434                 6.6554               100.7156

 - Thermochemistry -
 -------------------
 Temperature   298.150 Kelvin.  Pressure   1.00000 Atm.
 Atom     1 has atomic number  6 and mass  12.00000

 Molecular mass:   133.05276 amu.
 Principal axes and moments of inertia in atomic units:
                           1         2         3
     Eigenvalues --   770.251941819.642152488.51170
           X            0.75155  -0.63667   0.17270
           Y           -0.09425   0.15548   0.98333
           Z            0.65291   0.75530  -0.05684
 This molecule is an asymmetric top.
 Rotational symmetry number  1.
 Warning -- assumption of classical behavior for rotation
           may cause significant error
 Rotational temperatures (Kelvin)      0.11245     0.04760     0.03481
 Rotational constants (GHZ):           2.34305     0.99181     0.72523
 Zero-point vibrational energy     341183.8 (Joules/Mol)
                                   81.54490 (Kcal/Mol)
 Warning -- explicit consideration of  11 degrees of freedom as
           vibrations may cause significant error
 Vibrational temperatures:     63.80    83.77   182.37   244.22   320.28
          (Kelvin)            453.78   645.89   699.38   773.00   794.34
                              829.55   902.43   927.41   970.34  1060.80
                             1082.67  1174.46  1217.87  1282.35  1288.75
                             1309.45  1348.88  1416.35  1528.66  1619.47
                             1646.90  1664.34  1783.90  1812.46  1883.65
                             2038.47  2062.10  2079.78  2119.90  2134.37
                             2291.96  2383.99  3109.26  4484.32  4514.42
                             4565.12  4665.62  4683.32  4704.07  5221.74

 Zero-point correction=                           0.129950 (Hartree/Particle)
 Thermal correction to Energy=                    0.138881
 Thermal correction to Enthalpy=                  0.139825
 Thermal correction to Gibbs Free Energy=         0.094863
 Sum of electronic and zero-point Energies=           -439.034852
 Sum of electronic and thermal Energies=              -439.025921
 Sum of electronic and thermal Enthalpies=            -439.024976
 Sum of electronic and thermal Free Energies=         -439.069939

                     E (Thermal)             CV                S
                      KCal/Mol        Cal/Mol-Kelvin    Cal/Mol-Kelvin
 Total                   87.149             33.131             94.632
 Electronic               0.000              0.000              0.000
 Translational            0.889              2.981             40.569
 Rotational               0.889              2.981             29.635
 Vibrational             85.372             27.169             24.427
 Vibration     1          0.595              1.980              5.055
 Vibration     2          0.596              1.974              4.517
 Vibration     3          0.611              1.926              2.995
 Vibration     4          0.625              1.880              2.438
 Vibration     5          0.648              1.807              1.938
 Vibration     6          0.703              1.644              1.334
 Vibration     7          0.808              1.363              0.799
 Vibration     8          0.842              1.281              0.694
 Vibration     9          0.892              1.168              0.571
 Vibration    10          0.907              1.135              0.540
 Vibration    11          0.933              1.082              0.492

                       ! Non-Optimized Parameters !
 Normal termination of Gaussian 16 at Fri Jun 10 05:21:15 2022.
