 Gaussian 16, Revision A.03,
 Gaussian 16:  ES64L-G16RevA.03 25-Dec-2016

 --------------------------
 # sp B3LYP/Def2TZVP NoSymm
 --------------------------

 ---------------------------
 ts_initalOpt_zmat_AlignedSp
 ---------------------------
 Symbolic Z-matrix:
 Charge =  0 Multiplicity = 1

                          Input orientation:
 ---------------------------------------------------------------------
 Center     Atomic      Atomic             Coordinates (Angstroms)
 Number     Number       Type             X           Y           Z
 ---------------------------------------------------------------------
      1          1           0        0.000000    0.000000    0.000000
      2          6           0        0.000000    0.000000    1.081565
      3          6           0        1.265899    0.000000    1.709715
      4          6           0       -1.100092    0.516936    1.773988
      5          1           0        2.120875    0.206477    1.054318
      6          8           0        1.521138   -0.060155    2.938823
      7          6           0       -1.099605    0.589638    3.161057
      8          1           0       -1.872284    1.024887    1.203725
      9          6           0       -0.221465   -0.246257    3.844106
     10          1           0       -1.632443    1.380580    3.674278
     11          1           0        0.028407   -0.060530    4.880909
     12          1           0       -0.140505   -1.277346    3.529251
 ---------------------------------------------------------------------

 SCF Done:  E(RB3LYP) =  -269.391777956     A.U. after   14 cycles

 Alpha  occ. eigenvalues --  -19.14210 -10.25216 -10.22025 -10.19714 -10.17183
 Alpha  occ. eigenvalues --  -10.16810  -1.04687  -0.82889  -0.75669  -0.66725
 Alpha  occ. eigenvalues --   -0.60755  -0.52726  -0.50981  -0.47029  -0.45940
 Alpha  occ. eigenvalues --   -0.44222  -0.39713  -0.38200  -0.37609  -0.32592
 Alpha  occ. eigenvalues --   -0.28924  -0.21522
 Alpha virt. eigenvalues --   -0.06867   0.00076   0.04601   0.05564   0.07414
 Alpha virt. eigenvalues --    0.07938   0.09478   0.11463   0.12253   0.15881
 Alpha virt. eigenvalues --    0.18106   0.19678   0.20442   0.21643   0.22018

 Mulliken charges:
               1
     1  H    0.100605
     2  C   -0.258468
     3  C    0.161200
     4  C   -0.019610
     5  H    0.110703
     6  O   -0.297467
     7  C   -0.195581
     8  H    0.114857
     9  C   -0.091815
    10  H    0.109926
    11  H    0.134347
    12  H    0.131302
 Sum of Mulliken charges =  -0.00000

 Dipole moment (field-independent basis, Debye):
    X=             -0.8689    Y=              0.3297    Z=             -0.5287  Tot=              1.0692
 Quadrupole moment (field-independent basis, Debye-Ang):
   XX=            -37.5945   YY=            -36.4208   ZZ=            -34.4521
   XY=             -1.5146   XZ=             -4.3850   YZ=              0.0674

 Normal termination of Gaussian 16 at Fri Jun 10 22:20:25 2022.
