 Gaussian 16, Revision A.03,
 Gaussian 16:  ES64L-G16RevA.03 25-Dec-2016

 --------------------------
 # sp B3LYP/Def2TZVP NoSymm
 --------------------------

 ----------------------------
 int_initalOpt_zmat_AlignedSp
 ----------------------------
 Symbolic Z-matrix:
 Charge =  0 Multiplicity = 1

                          Input orientation:
 ---------------------------------------------------------------------
 Center     Atomic      Atomic             Coordinates (Angstroms)
 Number     Number       Type             X           Y           Z
 ---------------------------------------------------------------------
      1          1           0        0.000000    0.000000    0.000000
      2          6           0        0.000000    0.000000    1.077201
      3          6           0        1.136457    0.000000    1.929573
      4          6           0       -1.115609    0.000000    1.879291
      5          1           0        2.170580    0.000002    1.627991
      6          6           0        0.678777    0.000002    3.225128
      7          7           0       -0.691046   -0.000003    3.182364
      8          1           0       -2.163230   -0.000001    1.632999
      9          1           0        1.208522    0.000004    4.161900
     10          1           0       -1.293245   -0.000012    3.985268
 ---------------------------------------------------------------------

 SCF Done:  E(RB3LYP) =  -210.253439261     A.U. after   12 cycles

 Alpha  occ. eigenvalues --  -14.35971 -10.18827 -10.18824 -10.15226 -10.15181
 Alpha  occ. eigenvalues --   -0.97700  -0.77291  -0.72071  -0.59105  -0.56575
 Alpha  occ. eigenvalues --   -0.54566  -0.43157  -0.42480  -0.40950  -0.39027
 Alpha  occ. eigenvalues --   -0.37654  -0.24775  -0.21672
 Alpha virt. eigenvalues --    0.02870   0.02882   0.06955   0.08053   0.08873
 Alpha virt. eigenvalues --    0.10058   0.10708   0.14189   0.17867   0.19525
 Alpha virt. eigenvalues --    0.20843   0.20869   0.21185   0.25813   0.26324

 Mulliken charges:
               1
     1  H    0.104985
     2  C   -0.169762
     3  C   -0.169799
     4  C   -0.060162
     5  H    0.104982
     6  C   -0.060162
     7  N   -0.220224
     8  H    0.128014
     9  H    0.128014
    10  H    0.214114
 Sum of Mulliken charges =  -0.00000

 Dipole moment (field-independent basis, Debye):
    X=             -1.1450    Y=             -0.0000    Z=              1.5266  Tot=              1.9083
 Quadrupole moment (field-independent basis, Debye-Ang):
   XX=            -25.9346   YY=            -34.0566   ZZ=            -18.0715
   XY=              0.0000   XZ=             -4.2343   YZ=             -0.0001

 Normal termination of Gaussian 16 at Fri Jun 10 22:23:22 2022.
