 Gaussian 16, Revision A.03,
 Gaussian 16:  ES64L-G16RevA.03 25-Dec-2016

 ------------------------------------------------
 # Opt=tight B3LYP/Def2TZVP freq=noraman pop=none
 ------------------------------------------------

 -------------
 int_initalOpt
 -------------
 Symbolic Z-matrix:
 Charge =  0 Multiplicity = 1

 SCF Done:  E(RB3LYP) =  -573.628843962     A.U. after   14 cycles
 SCF Done:  E(RB3LYP) =  -573.628843969     A.U. after    5 cycles
 SCF Done:  E(RB3LYP) =  -573.628843979     A.U. after    6 cycles
 SCF Done:  E(RB3LYP) =  -573.628843986     A.U. after    5 cycles
 SCF Done:  E(RB3LYP) =  -573.628843982     A.U. after    6 cycles
 SCF Done:  E(RB3LYP) =  -573.628844021     A.U. after    7 cycles
 SCF Done:  E(RB3LYP) =  -573.628844032     A.U. after    6 cycles
 SCF Done:  E(RB3LYP) =  -573.628844045     A.U. after    7 cycles
 SCF Done:  E(RB3LYP) =  -573.628844050     A.U. after    6 cycles
 SCF Done:  E(RB3LYP) =  -573.628844054     A.U. after    5 cycles
 SCF Done:  E(RB3LYP) =  -573.628846206     A.U. after    7 cycles
 SCF Done:  E(RB3LYP) =  -573.628846337     A.U. after    7 cycles
 SCF Done:  E(RB3LYP) =  -573.628846442     A.U. after    7 cycles
 SCF Done:  E(RB3LYP) =  -573.628846461     A.U. after    7 cycles
 SCF Done:  E(RB3LYP) =  -573.628846469     A.U. after    6 cycles
 SCF Done:  E(RB3LYP) =  -573.628846476     A.U. after    5 cycles
 SCF Done:  E(RB3LYP) =  -573.628846477     A.U. after    4 cycles
 SCF Done:  E(RB3LYP) =  -573.628846477     A.U. after    4 cycles
 SCF Done:  E(RB3LYP) =  -573.628846478     A.U. after    4 cycles
 Optimization completed.
    -- Stationary point found.
 Normal termination of Gaussian 16 at Sun Jun 12 00:53:22 2022.

 --------------------------------------------------------------------
 #N Geom=AllCheck Guess=TCheck SCRF=Check GenChk RB3LYP/def2TZVP Freq
 --------------------------------------------------------------------

 Structure from the checkpoint file:  "checkpoint.chk"
 -------------
 int_initalOpt
 -------------
 Charge =  0 Multiplicity = 1

                         Standard orientation:
 ---------------------------------------------------------------------
 Center     Atomic      Atomic             Coordinates (Angstroms)
 Number     Number       Type             X           Y           Z
 ---------------------------------------------------------------------
      1          6           0        1.155875    0.664307    1.320746
      2          6           0       -2.406435    1.140182    0.132252
      3          6           0       -1.733775   -0.654384   -1.125206
      4          6           0       -1.795828    0.804615   -1.018533
      5          1           0       -1.293545   -1.190463   -1.954157
      6          1           0       -1.407379    1.490693   -1.757961
      7          6           0       -2.801835   -0.110435    0.862295
      8          1           0       -2.363903   -0.164937    1.866634
      9          1           0       -3.887701   -0.167596    1.009381
     10          1           0       -2.419155   -2.257828    0.167951
     11          1           0       -2.607885    2.139451    0.488961
     12          8           0        1.847688   -2.225547   -0.414519
     13          8           0        1.800252    2.243354   -0.408870
     14          6           0        1.668315   -1.123402   -0.003599
     15          6           0        1.644854    1.136552   -0.000533
     16          1           0        0.888910   -1.358720    2.094900
     17          6           0       -2.306277   -1.203926   -0.039021
     18          6           0        1.169621   -0.664863    1.318735
     19          1           0        0.860268    1.350066    2.098510
     20          8           0        1.934973    0.010626   -0.763741
 ---------------------------------------------------------------------

 SCF Done:  E(RB3LYP) =  -573.628846478     A.U. after    1 cycles

 Isotropic polarizability for W=    0.000000      106.88 Bohr**3.
 End of Minotr F.D. properties file   721 does not exist.

                      1                      2                      3
                      A                      A                      A
 Frequencies --      8.2989                31.0289                32.5231
 Red. masses --      4.1251                 6.3194                 6.8686
 Frc consts  --      0.0002                 0.0036                 0.0043
 IR Inten    --      0.3337                 0.0309                 0.0079

                      4                      5                      6
                      A                      A                      A
 Frequencies --     38.7450                56.2001                60.7703
 Red. masses --      4.3886                 4.0167                 3.9357
 Frc consts  --      0.0039                 0.0075                 0.0086
 IR Inten    --      9.8708                 0.2294                 5.3144

                      7                      8                      9
                      A                      A                      A
 Frequencies --    170.8213               275.1591               351.1441
 Red. masses --     15.3114                 4.0552                 1.5097
 Frc consts  --      0.2632                 0.1809                 0.1097
 IR Inten    --      5.3317                 0.0324                 8.3101

                     10                     11                     12
                      A                      A                      A
 Frequencies --    403.9248               527.5190               563.5393
 Red. masses --     12.9507                 2.3671                 4.6917
 Frc consts  --      1.2449                 0.3881                 0.8779
 IR Inten    --      8.5751                 0.1892                 3.3617

                     13                     14                     15
                      A                      A                      A
 Frequencies --    638.0299               644.7323               688.3102
 Red. masses --     10.3511                 2.3056                 1.1819
 Frc consts  --      2.4827                 0.5647                 0.3299
 IR Inten    --      0.5769                 2.2257                87.8378

                     16                     17                     18
                      A                      A                      A
 Frequencies --    702.1182               721.6574               785.5490
 Red. masses --      8.7661                 1.2689                 6.9283
 Frc consts  --      2.5461                 0.3893                 2.5190
 IR Inten    --     43.7406                 0.3881                 0.0415

                     19                     20                     21
                      A                      A                      A
 Frequencies --    819.4516               820.3658               860.1956
 Red. masses --      5.0831                 5.6049                 1.9957
 Frc consts  --      2.0111                 2.2224                 0.8700
 IR Inten    --      0.4822                 3.2185                77.9302

                     22                     23                     24
                      A                      A                      A
 Frequencies --    875.2619               898.3979               920.6575
 Red. masses --      9.3783                10.3597                 1.8563
 Frc consts  --      4.2330                 4.9265                 0.9270
 IR Inten    --      4.3993               125.8904                40.4585

                     25                     26                     27
                      A                      A                      A
 Frequencies --    926.0960               966.1288               966.6500
 Red. masses --      2.1457                 1.3271                 1.3510
 Frc consts  --      1.0843                 0.7298                 0.7438
 IR Inten    --      9.6927                 0.3918                 1.5547

                     28                     29                     30
                      A                      A                      A
 Frequencies --    970.3147               987.5617              1015.7096
 Red. masses --      1.5933                 1.3385                 2.6136
 Frc consts  --      0.8838                 0.7691                 1.5886
 IR Inten    --     10.6760                 0.0898                 0.2547

                     31                     32                     33
                      A                      A                      A
 Frequencies --   1057.5780              1080.5248              1116.3122
 Red. masses --      3.1755                 1.1700                 1.1269
 Frc consts  --      2.0926                 0.8048                 0.8274
 IR Inten    --     38.6246                16.8514                 1.5002

                     34                     35                     36
                      A                      A                      A
 Frequencies --   1124.6411              1134.4490              1261.9518
 Red. masses --      1.1399                 1.2507                 6.7214
 Frc consts  --      0.8495                 0.9484                 6.3066
 IR Inten    --      0.1956                 0.8249               122.4040

                     37                     38                     39
                      A                      A                      A
 Frequencies --   1269.2446              1323.1080              1336.8147
 Red. masses --      1.7563                 1.5857                 1.7515
 Frc consts  --      1.6670                 1.6355                 1.8442
 IR Inten    --      2.8592                 1.1491                 2.2240

                     40                     41                     42
                      A                      A                      A
 Frequencies --   1401.6045              1414.8701              1544.8868
 Red. masses --      1.4755                 1.3577                 5.5226
 Frc consts  --      1.7078                 1.6014                 7.7659
 IR Inten    --     28.9522                 4.5274                 6.0251

                     43                     44                     45
                      A                      A                      A
 Frequencies --   1633.2869              1650.7938              1836.5733
 Red. masses --      5.1105                 6.5853                12.8148
 Frc consts  --      8.0322                10.5732                25.4671
 IR Inten    --      0.7588                 4.1511               599.5532

                     46                     47                     48
                      A                      A                      A
 Frequencies --   1900.5290              3013.6647              3032.0434
 Red. masses --     12.6028                 1.0606                 1.0977
 Frc consts  --     26.8205                 5.6754                 5.9456
 IR Inten    --     69.1263                 9.3462                 6.9472

                     49                     50                     51
                      A                      A                      A
 Frequencies --   3199.1803              3207.7055              3223.2139
 Red. masses --      1.0867                 1.0885                 1.0994
 Frc consts  --      6.5529                 6.5990                 6.7298
 IR Inten    --      0.6776                 4.0507                 8.5193

                     52                     53                     54
                      A                      A                      A
 Frequencies --   3229.7717              3240.3942              3260.0366
 Red. masses --      1.1058                 1.0895                 1.1086
 Frc consts  --      6.7962                 6.7402                 6.9420
 IR Inten    --      0.6671                 0.3105                 0.8836

 - Thermochemistry -
 -------------------
 Temperature   298.150 Kelvin.  Pressure   1.00000 Atm.
 Atom     1 has atomic number  6 and mass  12.00000

 Molecular mass:   164.04734 amu.
 Principal axes and moments of inertia in atomic units:
                           1         2         3
     Eigenvalues --  1350.087162566.769593103.53634
           X            0.99999   0.00096  -0.00335
           Y           -0.00096   1.00000  -0.00081
           Z            0.00335   0.00081   0.99999
 This molecule is an asymmetric top.
 Rotational symmetry number  1.
 Warning -- assumption of classical behavior for rotation
           may cause significant error
 Rotational temperatures (Kelvin)      0.06415     0.03374     0.02791
 Rotational constants (GHZ):           1.33676     0.70312     0.58151
 Zero-point vibrational energy     390102.5 (Joules/Mol)
                                   93.23673 (Kcal/Mol)
 Warning -- explicit consideration of  12 degrees of freedom as
           vibrations may cause significant error
 Vibrational temperatures:     11.94    44.64    46.79    55.75    80.86
          (Kelvin)             87.43   245.77   395.89   505.22   581.16
                              758.98   810.81   917.98   927.63   990.32
                             1010.19  1038.30  1130.23  1179.01  1180.32
                             1237.63  1259.31  1292.59  1324.62  1332.45
                             1390.04  1390.79  1396.07  1420.88  1461.38
                             1521.62  1554.63  1606.12  1618.11  1632.22
                             1815.67  1826.16  1903.66  1923.38  2016.60
                             2035.68  2222.75  2349.94  2375.12  2642.42
                             2734.44  4335.99  4362.43  4602.91  4615.17
                             4637.49  4646.92  4662.20  4690.47

 Zero-point correction=                           0.148582 (Hartree/Particle)
 Thermal correction to Energy=                    0.160200
 Thermal correction to Enthalpy=                  0.161144
 Thermal correction to Gibbs Free Energy=         0.105417
 Sum of electronic and zero-point Energies=           -573.480264
 Sum of electronic and thermal Energies=              -573.468646
 Sum of electronic and thermal Enthalpies=            -573.467702
 Sum of electronic and thermal Free Energies=         -573.523429

                     E (Thermal)             CV                S
                      KCal/Mol        Cal/Mol-Kelvin    Cal/Mol-Kelvin
 Total                  100.527             39.962            117.288
 Electronic               0.000              0.000              0.000
 Translational            0.889              2.981             41.193
 Rotational               0.889              2.981             30.754
 Vibrational             98.750             34.000             45.341
 Vibration     1          0.593              1.987              8.382
 Vibration     2          0.594              1.983              5.763
 Vibration     3          0.594              1.983              5.669
 Vibration     4          0.594              1.981              5.322
 Vibration     5          0.596              1.975              4.586
 Vibration     6          0.597              1.973              4.432
 Vibration     7          0.626              1.878              2.426
 Vibration     8          0.677              1.719              1.564
 Vibration     9          0.728              1.573              1.161
 Vibration    10          0.769              1.462              0.948
 Vibration    11          0.882              1.189              0.593
 Vibration    12          0.919              1.110              0.517

                           ! Non-Optimized Parameters !
 Normal termination of Gaussian 16 at Sun Jun 12 01:11:40 2022.
