 Gaussian 16, Revision A.03,
 Gaussian 16:  ES64L-G16RevA.03 25-Dec-2016

 ----------------------------------------------------------------------
 # Opt=(Z-matrix, MaxStep=10) B3LYP/Def2TZVP geom=allcheckpoint guess=r
 ead Field=read NoSymm freq=noraman pop=none
 ----------------------------------------------------------------------

 Structure from the checkpoint file:  "checkpoint.chk"
 ------------------
 int_zmat_initalOpt
 ------------------
 Charge =  0 Multiplicity = 1

 SCF Done:  E(RB3LYP) =  -309.744560428     A.U. after    9 cycles
 SCF Done:  E(RB3LYP) =  -309.744563698     A.U. after    7 cycles
 SCF Done:  E(RB3LYP) =  -309.744563934     A.U. after    6 cycles
 Optimization completed.
    -- Stationary point found.
 Normal termination of Gaussian 16 at Fri Jun 10 03:36:00 2022.

 --------------------------------------------------------------------
 #N Geom=AllCheck Guess=TCheck SCRF=Check GenChk RB3LYP/def2TZVP Freq
 --------------------------------------------------------------------

 Structure from the checkpoint file:  "checkpoint.chk"
 ------------------
 int_zmat_initalOpt
 ------------------
 Charge =  0 Multiplicity = 1

                          Input orientation:
 ---------------------------------------------------------------------
 Center     Atomic      Atomic             Coordinates (Angstroms)
 Number     Number       Type             X           Y           Z
 ---------------------------------------------------------------------
      1          6           0        0.000000    0.000000    0.000000
      2          6           0        0.000000    0.000000    1.382783
      3          6           0        1.173232    0.000000   -0.742780
      4          6           0       -0.892303    0.000014   -1.230629
      5          1           0       -0.903969    0.000012    1.979544
      6          6           0        1.257433   -0.000025    1.994485
      7          6           0        2.423123   -0.000029   -0.151294
      8          6           0        0.442515    0.000066   -2.075714
      9          1           0       -1.515442   -0.888068   -1.365777
     10          1           0       -1.515497    0.888067   -1.365717
     11          6           0        2.438180   -0.000044    1.246956
     12          1           0        1.324791   -0.000030    3.074833
     13          1           0        3.349210   -0.000030   -0.713121
     14          1           0        0.586880    0.888177   -2.696742
     15          1           0        0.586907   -0.887963   -2.696854
     16          1           0        3.385876   -0.000062    1.769988
 ---------------------------------------------------------------------

 SCF Done:  E(RB3LYP) =  -309.744563934     A.U. after    1 cycles

 Isotropic polarizability for W=    0.000000       88.27 Bohr**3.
 End of Minotr F.D. properties file   721 does not exist.

                      1                      2                      3
                      A                      A                      A
 Frequencies --    193.0754               212.2800               401.7064
 Red. masses --      1.8872                 3.1950                 2.7661
 Frc consts  --      0.0415                 0.0848                 0.2630
 IR Inten    --      0.0003                 7.8266                 5.5253

                      4                      5                      6
                      A                      A                      A
 Frequencies --    415.5346               488.2446               551.3442
 Red. masses --      3.3889                 2.8960                 5.7693
 Frc consts  --      0.3448                 0.4068                 1.0333
 IR Inten    --      2.1310                 0.0000                 0.0000

                      7                      8                      9
                      A                      A                      A
 Frequencies --    645.3098               716.9942               738.6577
 Red. masses --      6.3108                 3.4266                 1.1378
 Frc consts  --      1.5484                 1.0379                 0.3658
 IR Inten    --      0.0067                 0.0000                37.4509

                     10                     11                     12
                      A                      A                      A
 Frequencies --    791.3681               803.9363               865.0546
 Red. masses --      3.8102                 1.1822                 4.4228
 Frc consts  --      1.4059                 0.4502                 1.9500
 IR Inten    --      1.3567                23.9177                 0.6312

                     13                     14                     15
                      A                      A                      A
 Frequencies --    887.0191               902.6815               951.7078
 Red. masses --      1.2563                 3.4391                 1.3549
 Frc consts  --      0.5824                 1.6511                 0.7230
 IR Inten    --      0.0000                 1.1401                 0.0398

                     16                     17                     18
                      A                      A                      A
 Frequencies --   1007.0645              1024.4918              1047.0263
 Red. masses --      1.3012                 2.1664                 2.0034
 Frc consts  --      0.7775                 1.3397                 1.2940
 IR Inten    --      0.0000                 1.6372                 0.0000

                     19                     20                     21
                      A                      A                      A
 Frequencies --   1087.9577              1104.5221              1154.2359
 Red. masses --      1.1767                 3.1636                 1.6780
 Frc consts  --      0.8206                 2.2740                 1.3171
 IR Inten    --      0.5355                 0.2448                 1.6714

                     22                     23                     24
                      A                      A                      A
 Frequencies --   1180.9672              1183.4315              1199.7060
 Red. masses --      1.1425                 1.2198                 1.5743
 Frc consts  --      0.9388                 1.0065                 1.3350
 IR Inten    --      0.0000                 0.1565                 1.1747

                     25                     26                     27
                      A                      A                      A
 Frequencies --   1223.0335              1228.6858              1311.5110
 Red. masses --      2.6263                 1.4843                 1.5576
 Frc consts  --      2.3146                 1.3202                 1.5785
 IR Inten    --      2.1668                 6.0681                 1.8157

                     28                     29                     30
                      A                      A                      A
 Frequencies --   1364.3765              1466.8795              1480.4742
 Red. masses --      4.2502                 1.0856                 1.3340
 Frc consts  --      4.6615                 1.3763                 1.7227
 IR Inten    --      2.2835                 0.1113                 1.2021

                     31                     32                     33
                      A                      A                      A
 Frequencies --   1498.5450              1500.5404              1634.2977
 Red. masses --      2.2383                 1.9125                 6.5661
 Frc consts  --      2.9615                 2.5372                10.3328
 IR Inten    --      4.0479                16.5997                 0.1994

                     34                     35                     36
                      A                      A                      A
 Frequencies --   1646.0732              3020.0707              3026.3894
 Red. masses --      6.6286                 1.0550                 1.0574
 Frc consts  --     10.5821                 5.6694                 5.7061
 IR Inten    --      0.0562                62.2564               133.2151

                     37                     38                     39
                      A                      A                      A
 Frequencies --   3050.8099              3067.8703              3171.2928
 Red. masses --      1.1083                 1.1069                 1.0880
 Frc consts  --      6.0774                 6.1381                 6.4467
 IR Inten    --      0.0002                69.7130                12.9302

                     40                     41                     42
                      A                      A                      A
 Frequencies --   3174.5578              3187.3500              3199.1068
 Red. masses --      1.0894                 1.0922                 1.0961
 Frc consts  --      6.4685                 6.5377                 6.6092
 IR Inten    --      0.0491                11.0805                 2.6971

 - Thermochemistry -
 -------------------
 Temperature   298.150 Kelvin.  Pressure   1.00000 Atm.
 Atom     1 has atomic number  6 and mass  12.00000

 Molecular mass:   104.06260 amu.
 Principal axes and moments of inertia in atomic units:
                           1         2         3
     Eigenvalues --   402.81282 862.875761242.98126
           X            0.53491   0.84491   0.00001
           Y           -0.00002  -0.00000   1.00000
           Z            0.84491  -0.53491   0.00001
 This molecule is an asymmetric top.
 Rotational symmetry number  1.
 Rotational temperatures (Kelvin)      0.21502     0.10038     0.06968
 Rotational constants (GHZ):           4.48035     2.09154     1.45195
 Zero-point vibrational energy     351739.1 (Joules/Mol)
                                   84.06766 (Kcal/Mol)
 Warning -- explicit consideration of   6 degrees of freedom as
           vibrations may cause significant error
 Vibrational temperatures:    277.79   305.42   577.97   597.86   702.48
          (Kelvin)            793.26   928.46  1031.59  1062.76  1138.60
                             1156.69  1244.62  1276.22  1298.76  1369.30
                             1448.94  1474.02  1506.44  1565.33  1589.16
                             1660.69  1699.15  1702.69  1726.11  1759.67
                             1767.80  1886.97  1963.03  2110.51  2130.07
                             2156.07  2158.94  2351.39  2368.33  4345.21
                             4354.30  4389.43  4413.98  4562.78  4567.48
                             4585.89  4602.80

 Zero-point correction=                           0.133970 (Hartree/Particle)
 Thermal correction to Energy=                    0.139955
 Thermal correction to Enthalpy=                  0.140899
 Thermal correction to Gibbs Free Energy=         0.104142
 Sum of electronic and zero-point Energies=           -309.610594
 Sum of electronic and thermal Energies=              -309.604609
 Sum of electronic and thermal Enthalpies=            -309.603665
 Sum of electronic and thermal Free Energies=         -309.640422

                     E (Thermal)             CV                S
                      KCal/Mol        Cal/Mol-Kelvin    Cal/Mol-Kelvin
 Total                   87.823             24.284             77.362
 Electronic               0.000              0.000              0.000
 Translational            0.889              2.981             39.837
 Rotational               0.889              2.981             27.560
 Vibrational             86.045             18.322              9.965
 Vibration     1          0.635              1.849              2.198
 Vibration     2          0.643              1.822              2.024
 Vibration     3          0.767              1.466              0.956
 Vibration     4          0.779              1.436              0.907
 Vibration     5          0.844              1.276              0.688
 Vibration     6          0.907              1.137              0.541

 Optimization completed.
    -- Stationary point found.
 Normal termination of Gaussian 16 at Fri Jun 10 03:42:11 2022.
