 Gaussian 16, Revision A.03,
 Gaussian 16:  ES64L-G16RevA.03 25-Dec-2016

 --------------------------
 # sp B3LYP/Def2TZVP NoSymm
 --------------------------

 ----------------------------
 int_initalOpt_zmat_AlignedSp
 ----------------------------
 Symbolic Z-matrix:
 Charge =  0 Multiplicity = 1

                          Input orientation:
 ---------------------------------------------------------------------
 Center     Atomic      Atomic             Coordinates (Angstroms)
 Number     Number       Type             X           Y           Z
 ---------------------------------------------------------------------
      1          1           0        0.000000    0.000000    0.000000
      2          6           0        0.000000    0.000000    1.099154
      3          6           0        1.415784    0.000000    1.641946
      4          8           0       -0.614860    1.187970    1.592272
      5          1           0       -0.596824   -0.849644    1.437545
      6          6           0        0.420384    2.135170    1.827312
      7          6           0        1.577928    1.312736    2.404135
      8          6           0        2.329259   -0.947405    1.465794
      9          1           0        0.032483    2.892321    2.507619
     10          1           0        0.719371    2.619442    0.887754
     11          6           0        2.944533    1.927575    2.367326
     12          1           0        1.333433    1.106947    3.456263
     13          1           0        3.316724   -0.807325    1.895542
     14          6           0        2.130185   -2.227593    0.711334
     15          6           0        3.241637    3.174467    2.021534
     16          1           0        3.752717    1.274708    2.684189
     17          1           0        1.131469   -2.309331    0.282309
     18          1           0        2.285859   -3.093946    1.361672
     19          1           0        2.853422   -2.316910   -0.104889
     20          1           0        2.490974    3.889073    1.707206
     21          1           0        4.264001    3.529864    2.042256
 ---------------------------------------------------------------------

 SCF Done:  E(RB3LYP) =  -387.391421198     A.U. after   14 cycles

 Alpha  occ. eigenvalues --  -19.12781 -10.21971 -10.21703 -10.18887 -10.18274
 Alpha  occ. eigenvalues --  -10.18083 -10.17157 -10.17130 -10.16873  -1.04183
 Alpha  occ. eigenvalues --   -0.82923  -0.79059  -0.73403  -0.72612  -0.64677
 Alpha  occ. eigenvalues --   -0.62880  -0.56557  -0.53108  -0.50643  -0.48530
 Alpha  occ. eigenvalues --   -0.46631  -0.45152  -0.43154  -0.41954  -0.41340
 Alpha  occ. eigenvalues --   -0.40124  -0.38922  -0.38278  -0.36454  -0.34031
 Alpha  occ. eigenvalues --   -0.31955  -0.27092  -0.26316  -0.24461
 Alpha virt. eigenvalues --   -0.00091   0.00301   0.03545   0.05189   0.05550
 Alpha virt. eigenvalues --    0.06704   0.08174   0.08670   0.10044   0.10933
 Alpha virt. eigenvalues --    0.11158   0.11285   0.13107   0.13538   0.14031

 Mulliken charges:
               1
     1  H    0.084910
     2  C   -0.011421
     3  C   -0.055370
     4  O   -0.330022
     5  H    0.109244
     6  C   -0.039128
     7  C    0.081316
     8  C   -0.119471
     9  H    0.104547
    10  H    0.075465
    11  C   -0.142337
    12  H    0.077468
    13  H    0.096478
    14  C   -0.338775
    15  C   -0.261352
    16  H    0.101678
    17  H    0.109848
    18  H    0.117958
    19  H    0.117144
    20  H    0.109907
    21  H    0.111913
 Sum of Mulliken charges =  -0.00000

 Dipole moment (field-independent basis, Debye):
    X=              1.3152    Y=             -0.6178    Z=             -0.0524  Tot=              1.4540
 Quadrupole moment (field-independent basis, Debye-Ang):
   XX=            -55.6130   YY=            -53.0146   ZZ=            -56.5986
   XY=              0.6371   XZ=              2.8834   YZ=             -0.2856

 Normal termination of Gaussian 16 at Fri Jun 10 22:26:26 2022.
