 Gaussian 16, Revision A.03,
 Gaussian 16:  ES64L-G16RevA.03 25-Dec-2016

 ----------------------------------------------------------------------
 # Opt=(Z-matrix, MaxStep=10) B3LYP/Def2TZVP Field=read NoSymm freq=nor
 aman pop=none
 ----------------------------------------------------------------------

 ------------------
 int_zmat_initalOpt
 ------------------
 Symbolic Z-matrix:
 Charge =  0 Multiplicity = 1

 SCF Done:  E(RB3LYP) =  -210.251805724     A.U. after   12 cycles
 SCF Done:  E(RB3LYP) =  -210.251811298     A.U. after    8 cycles
 SCF Done:  E(RB3LYP) =  -210.251811990     A.U. after    7 cycles
 SCF Done:  E(RB3LYP) =  -210.251812124     A.U. after    6 cycles
 Optimization completed.
    -- Stationary point found.
 Normal termination of Gaussian 16 at Fri Jun 10 11:11:57 2022.

 --------------------------------------------------------------------
 #N Geom=AllCheck Guess=TCheck SCRF=Check GenChk RB3LYP/def2TZVP Freq
 --------------------------------------------------------------------

 Structure from the checkpoint file:  "checkpoint.chk"
 ------------------
 int_zmat_initalOpt
 ------------------
 Charge =  0 Multiplicity = 1

                          Input orientation:
 ---------------------------------------------------------------------
 Center     Atomic      Atomic             Coordinates (Angstroms)
 Number     Number       Type             X           Y           Z
 ---------------------------------------------------------------------
      1          6           0        0.000000    0.000000    0.000000
      2          6           0        0.000000    0.000000    1.420904
      3          6           0        1.310296    0.000000   -0.411447
      4          1           0       -0.863444    0.001258   -0.644185
      5          6           0        1.309837    0.001403    1.832665
      6          7           0        2.099240    0.001368    0.710883
      7          1           0        1.740403    0.002646   -1.398408
      8          1           0       -0.863179    0.001705    2.065378
      9          1           0        1.739000    0.004988    2.819979
     10          1           0        3.102526    0.006923    0.711869
 ---------------------------------------------------------------------

 SCF Done:  E(RB3LYP) =  -210.251812124     A.U. after    1 cycles

 Isotropic polarizability for W=    0.000000       49.84 Bohr**3.
 End of Minotr F.D. properties file   721 does not exist.

                      1                      2                      3
                      A                      A                      A
 Frequencies --    436.5903               628.1279               640.0417
 Red. masses --      1.4031                 3.1972                 2.3785
 Frc consts  --      0.1576                 0.7432                 0.5741
 IR Inten    --     71.0601                 0.0005                 0.1303

                      4                      5                      6
                      A                      A                      A
 Frequencies --    680.1514               727.7524               826.6310
 Red. masses --      1.2967                 1.1998                 1.2272
 Frc consts  --      0.3534                 0.3744                 0.4941
 IR Inten    --      0.3879               154.7491                 4.0555

                      7                      8                      9
                      A                      A                      A
 Frequencies --    878.2702               880.3022               904.1709
 Red. masses --      1.3252                 4.6987                 4.0466
 Frc consts  --      0.6023                 2.1453                 1.9491
 IR Inten    --      0.0739                 1.6367                 0.3850

                     10                     11                     12
                      A                      A                      A
 Frequencies --   1035.7480              1069.1257              1090.9130
 Red. masses --      1.4474                 1.4031                 1.5725
 Frc consts  --      0.9148                 0.9449                 1.1026
 IR Inten    --     32.3711                28.3760                 6.6589

                     13                     14                     15
                      A                      A                      A
 Frequencies --   1156.3436              1174.2608              1316.3083
 Red. masses --      1.2565                 3.5418                 1.3707
 Frc consts  --      0.9899                 2.8774                 1.3992
 IR Inten    --      1.4221                 3.3448                 0.9167

                     16                     17                     18
                      A                      A                      A
 Frequencies --   1418.2641              1448.6852              1499.6821
 Red. masses --      4.2011                 2.9392                 2.6470
 Frc consts  --      4.9788                 3.6344                 3.5075
 IR Inten    --      3.9957                 6.2280                 7.3584

                     19                     20                     21
                      A                      A                      A
 Frequencies --   1577.5366              3239.3596              3248.7464
 Red. masses --      3.0467                 1.0882                 1.0923
 Frc consts  --      4.4672                 6.7277                 6.7924
 IR Inten    --      2.6437                 0.8636                 1.9033

                     22                     23                     24
                      A                      A                      A
 Frequencies --   3261.2124              3267.8285              3670.3689
 Red. masses --      1.0994                 1.1066                 1.0803
 Frc consts  --      6.8890                 6.9623                 8.5748
 IR Inten    --      3.5129                 0.0605                54.0921

 - Thermochemistry -
 -------------------
 Temperature   298.150 Kelvin.  Pressure   1.00000 Atm.
 Atom     1 has atomic number  6 and mass  12.00000

 Molecular mass:    67.04220 amu.
 Principal axes and moments of inertia in atomic units:
                           1         2         3
     Eigenvalues --   196.39681 199.11693 395.51340
           X            1.00000  -0.00290  -0.00076
           Y            0.00076   0.00044   1.00000
           Z            0.00290   1.00000  -0.00045
 This molecule is an asymmetric top.
 Rotational symmetry number  1.
 Rotational temperatures (Kelvin)      0.44101     0.43499     0.21899
 Rotational constants (GHZ):           9.18926     9.06373     4.56303
 Zero-point vibrational energy     215784.9 (Joules/Mol)
                                   51.57383 (Kcal/Mol)
 Warning -- explicit consideration of   1 degrees of freedom as
           vibrations may cause significant error
 Vibrational temperatures:    628.16   903.74   920.88   978.59  1047.07
          (Kelvin)           1189.34  1263.63  1266.56  1300.90  1490.21
                             1538.23  1569.58  1663.72  1689.50  1893.87
                             2040.57  2084.33  2157.71  2269.72  4660.72
                             4674.22  4692.16  4701.68  5280.84

 Zero-point correction=                           0.082188 (Hartree/Particle)
 Thermal correction to Energy=                    0.086201
 Thermal correction to Enthalpy=                  0.087145
 Thermal correction to Gibbs Free Energy=         0.055774
 Sum of electronic and zero-point Energies=           -210.169624
 Sum of electronic and thermal Energies=              -210.165611
 Sum of electronic and thermal Enthalpies=            -210.164667
 Sum of electronic and thermal Free Energies=         -210.196038

                     E (Thermal)             CV                S
                      KCal/Mol        Cal/Mol-Kelvin    Cal/Mol-Kelvin
 Total                   54.092             14.932             66.026
 Electronic               0.000              0.000              0.000
 Translational            0.889              2.981             38.526
 Rotational               0.889              2.981             24.251
 Vibrational             52.314              8.970              3.248
 Vibration     1          0.797              1.390              0.837

                       ! Non-Optimized Parameters !
 Normal termination of Gaussian 16 at Fri Jun 10 11:13:36 2022.
