 Gaussian 16, Revision A.03,
 Gaussian 16:  ES64L-G16RevA.03 25-Dec-2016

 --------------------------
 # sp B3LYP/Def2TZVP NoSymm
 --------------------------

 ---------------------------
 ts_initalOpt_zmat_AlignedSp
 ---------------------------
 Symbolic Z-matrix:
 Charge =  0 Multiplicity = 1

                          Input orientation:
 ---------------------------------------------------------------------
 Center     Atomic      Atomic             Coordinates (Angstroms)
 Number     Number       Type             X           Y           Z
 ---------------------------------------------------------------------
      1          1           0        0.000000    0.000000    0.000000
      2          6           0        0.000000    0.000000    1.091590
      3          1           0        1.045176    0.000000    1.406393
      4          6           0       -0.801790    1.172958    1.683561
      5          6           0       -0.751464   -1.210674    1.631793
      6          1           0       -1.460775   -1.678147    0.958710
      7          6           0       -1.890180    0.455177    2.472513
      8          6           0       -0.335552   -1.956295    2.730756
      9          1           0       -1.239170    1.812816    0.914893
     10          1           0       -0.197700    1.818231    2.324023
     11          1           0       -0.928641   -2.834745    2.969670
     12          6           0        0.557171   -1.519199    3.683372
     13          6           0       -1.851628    0.261601    3.850081
     14          1           0       -2.855379    0.362050    1.988354
     15          1           0        1.295243   -0.764329    3.455841
     16          1           0        0.764664   -2.127655    4.553193
     17          6           0       -0.714670    0.341398    4.622378
     18          1           0       -2.724550   -0.207477    4.295594
     19          1           0        0.130997    0.938867    4.315412
     20          1           0       -0.754339    0.094517    5.674678
 ---------------------------------------------------------------------

 SCF Done:  E(RB3LYP) =  -312.079794717     A.U. after   13 cycles

 Alpha  occ. eigenvalues --  -10.18167 -10.18167 -10.17162 -10.17143 -10.17029
 Alpha  occ. eigenvalues --  -10.17028 -10.16205 -10.16203  -0.83629  -0.77663
 Alpha  occ. eigenvalues --   -0.75856  -0.67516  -0.66398  -0.60185  -0.54911
 Alpha  occ. eigenvalues --   -0.50575  -0.50224  -0.46844  -0.46297  -0.43209
 Alpha  occ. eigenvalues --   -0.40280  -0.40237  -0.37798  -0.37211  -0.36331
 Alpha  occ. eigenvalues --   -0.33362  -0.32190  -0.31997  -0.24083  -0.21179
 Alpha virt. eigenvalues --   -0.03807   0.00481   0.03418   0.04141   0.06652
 Alpha virt. eigenvalues --    0.06911   0.07926   0.09342   0.10097   0.10843
 Alpha virt. eigenvalues --    0.11357   0.13379   0.14249   0.14622   0.14867

 Mulliken charges:
               1
     1  H    0.086916
     2  C   -0.153327
     3  H    0.088977
     4  C   -0.153250
     5  C   -0.091554
     6  H    0.102521
     7  C   -0.091586
     8  C   -0.062532
     9  H    0.086921
    10  H    0.088973
    11  H    0.088254
    12  C   -0.290961
    13  C   -0.062573
    14  H    0.102522
    15  H    0.115899
    16  H    0.115807
    17  C   -0.290959
    18  H    0.088251
    19  H    0.115895
    20  H    0.115807
 Sum of Mulliken charges =  -0.00000

 Dipole moment (field-independent basis, Debye):
    X=             -0.1463    Y=              0.1099    Z=             -0.4161  Tot=              0.4546
 Quadrupole moment (field-independent basis, Debye-Ang):
   XX=            -50.2636   YY=            -53.0751   ZZ=            -51.2925
   XY=              2.8468   XZ=              1.8339   YZ=             -1.8303

 Normal termination of Gaussian 16 at Fri Jun 10 22:21:11 2022.
