 Gaussian 16, Revision A.03,
 Gaussian 16:  ES64L-G16RevA.03 25-Dec-2016

 --------------------------
 # sp B3LYP/Def2TZVP NoSymm
 --------------------------

 ----------------------------
 int_initalOpt_zmat_AlignedSp
 ----------------------------
 Symbolic Z-matrix:
 Charge =  0 Multiplicity = 1

                          Input orientation:
 ---------------------------------------------------------------------
 Center     Atomic      Atomic             Coordinates (Angstroms)
 Number     Number       Type             X           Y           Z
 ---------------------------------------------------------------------
      1          1           0        0.000000    0.000000    0.000000
      2          6           0        0.000000    0.000000    1.088420
      3          6           0        1.374312    0.000000    1.798690
      4          6           0       -0.359129    1.324696    1.809149
      5          1           0       -0.636240   -0.817305    1.429485
      6          1           0       -1.346472    1.341491    2.279788
      7          6           0        0.805790    0.995195    2.834201
      8          6           0       -0.184590    2.600223    1.045410
      9          1           0        2.141157    0.460422    1.175530
     10          1           0        1.752286   -0.950052    2.176141
     11          1           0        0.351287    0.437368    3.659889
     12          1           0       -0.229618    3.499081    1.655861
     13          6           0        1.636195    2.090388    3.412074
     14          6           0       -0.000486    2.743987   -0.261537
     15          1           0        0.054102    1.901513   -0.939494
     16          1           0        0.099623    3.726331   -0.705370
     17          6           0        2.936668    2.276776    3.219388
     18          1           0        1.104656    2.780724    4.064435
     19          1           0        3.465006    3.093758    3.694065
     20          1           0        3.523317    1.621867    2.586579
 ---------------------------------------------------------------------

 SCF Done:  E(RB3LYP) =  -312.116800339     A.U. after   13 cycles

 Alpha  occ. eigenvalues --  -10.18245 -10.18171 -10.17374 -10.17350 -10.16886
 Alpha  occ. eigenvalues --  -10.16703 -10.16162 -10.16074  -0.86026  -0.77607
 Alpha  occ. eigenvalues --   -0.75962  -0.67169  -0.66042  -0.59491  -0.55949
 Alpha  occ. eigenvalues --   -0.51312  -0.49606  -0.48263  -0.45706  -0.44642
 Alpha  occ. eigenvalues --   -0.40960  -0.39706  -0.36995  -0.36555  -0.34887
 Alpha  occ. eigenvalues --   -0.32688  -0.32523  -0.30629  -0.26335  -0.25433
 Alpha virt. eigenvalues --   -0.00014   0.00790   0.03672   0.04979   0.06218
 Alpha virt. eigenvalues --    0.06789   0.08623   0.09388   0.09762   0.11098
 Alpha virt. eigenvalues --    0.12636   0.13060   0.13914   0.14354   0.14583

 Mulliken charges:
               1
     1  H    0.088453
     2  C   -0.192508
     3  C   -0.177123
     4  C    0.041389
     5  H    0.086221
     6  H    0.081055
     7  C    0.030246
     8  C   -0.147386
     9  H    0.086635
    10  H    0.092176
    11  H    0.068667
    12  H    0.091056
    13  C   -0.164227
    14  C   -0.258594
    15  H    0.098725
    16  H    0.109236
    17  C   -0.247488
    18  H    0.099772
    19  H    0.109099
    20  H    0.104596
 Sum of Mulliken charges =  -0.00000

 Dipole moment (field-independent basis, Debye):
    X=             -0.3252    Y=             -0.3261    Z=              0.2930  Tot=              0.5459
 Quadrupole moment (field-independent basis, Debye-Ang):
   XX=            -52.4328   YY=            -50.6903   ZZ=            -49.8394
   XY=             -0.1466   XZ=             -2.4403   YZ=              0.9127

 Normal termination of Gaussian 16 at Fri Jun 10 22:20:07 2022.
