 Gaussian 16, Revision A.03,
 Gaussian 16:  ES64L-G16RevA.03 25-Dec-2016

 ----------------------------------------------------------------------
 # Opt=(Z-matrix, MaxStep=10) B3LYP/Def2TZVP geom=allcheckpoint guess=r
 ead Field=read NoSymm freq=noraman pop=none
 ----------------------------------------------------------------------

 Structure from the checkpoint file:  "checkpoint.chk"
 ------------------
 int_zmat_initalOpt
 ------------------
 Charge =  0 Multiplicity = 1

 SCF Done:  E(RB3LYP) =  -269.424839378     A.U. after   10 cycles
 SCF Done:  E(RB3LYP) =  -269.424848818     A.U. after    8 cycles
 SCF Done:  E(RB3LYP) =  -269.424853897     A.U. after    9 cycles
 SCF Done:  E(RB3LYP) =  -269.424856304     A.U. after    8 cycles
 SCF Done:  E(RB3LYP) =  -269.424857307     A.U. after    8 cycles
 Optimization completed.
    -- Stationary point found.
 Normal termination of Gaussian 16 at Fri Jun 10 11:42:25 2022.

 --------------------------------------------------------------------
 #N Geom=AllCheck Guess=TCheck SCRF=Check GenChk RB3LYP/def2TZVP Freq
 --------------------------------------------------------------------

 Structure from the checkpoint file:  "checkpoint.chk"
 ------------------
 int_zmat_initalOpt
 ------------------
 Charge =  0 Multiplicity = 1

                          Input orientation:
 ---------------------------------------------------------------------
 Center     Atomic      Atomic             Coordinates (Angstroms)
 Number     Number       Type             X           Y           Z
 ---------------------------------------------------------------------
      1          6           0        0.000000    0.000000    0.000000
      2          6           0        0.000000    0.000000    1.335385
      3          6           0        1.268664    0.000000   -0.713800
      4          1           0       -0.925828    0.071321   -0.557384
      5          1           0       -0.908447    0.073047    1.918411
      6          1           0        1.314443   -0.097355   -1.789231
      7          6           0        2.383943    0.276199   -0.020892
      8          6           0        1.308295   -0.122196    2.061593
      9          1           0        3.351759    0.458941   -0.472703
     10          8           0        2.408361    0.458336    1.312858
     11          1           0        1.302021    0.402713    3.014485
     12          1           0        1.558681   -1.175996    2.254753
 ---------------------------------------------------------------------

 SCF Done:  E(RB3LYP) =  -269.424857307     A.U. after    1 cycles

 Isotropic polarizability for W=    0.000000       59.53 Bohr**3.
 End of Minotr F.D. properties file   721 does not exist.

                      1                      2                      3
                      A                      A                      A
 Frequencies --    154.1002               331.9241               502.8075
 Red. masses --      2.2505                 2.6808                 3.3715
 Frc consts  --      0.0315                 0.1740                 0.5022
 IR Inten    --      2.4426                13.0303                14.4198

                      4                      5                      6
                      A                      A                      A
 Frequencies --    570.7998               617.7861               722.8211
 Red. masses --      3.0451                 4.9239                 1.4406
 Frc consts  --      0.5846                 1.1072                 0.4435
 IR Inten    --     13.4280                 0.9706                56.6143

                      7                      8                      9
                      A                      A                      A
 Frequencies --    756.6256               855.5770               911.1038
 Red. masses --      1.4088                 3.9964                 1.3673
 Frc consts  --      0.4752                 1.7236                 0.6687
 IR Inten    --      4.4464                15.2530                 0.9064

                     10                     11                     12
                      A                      A                      A
 Frequencies --    950.9475               968.8195               978.9673
 Red. masses --      2.5017                 2.5384                 1.8836
 Frc consts  --      1.3329                 1.4038                 1.0636
 IR Inten    --      9.4870                21.3101                 5.8669

                     13                     14                     15
                      A                      A                      A
 Frequencies --    994.5756              1077.7955              1096.1161
 Red. masses --      1.9816                 2.2945                 1.8839
 Frc consts  --      1.1549                 1.5704                 1.3336
 IR Inten    --      4.3229                 4.3315                55.3025

                     16                     17                     18
                      A                      A                      A
 Frequencies --   1193.1472              1249.2060              1278.7422
 Red. masses --      1.1046                 1.4331                 1.1661
 Frc consts  --      0.9265                 1.3176                 1.1234
 IR Inten    --      1.0213                46.7748                14.8127

                     19                     20                     21
                      A                      A                      A
 Frequencies --   1370.9651              1419.1549              1449.6076
 Red. masses --      1.2138                 1.5415                 1.7791
 Frc consts  --      1.3442                 1.8292                 2.2027
 IR Inten    --      0.3344                 8.9382                 7.5712

                     22                     23                     24
                      A                      A                      A
 Frequencies --   1502.9423              1626.3476              1693.8356
 Red. masses --      1.1068                 5.8141                 5.4945
 Frc consts  --      1.4730                 9.0606                 9.2880
 IR Inten    --      3.1251                47.1610                28.5403

                     25                     26                     27
                      A                      A                      A
 Frequencies --   2952.7103              3116.2279              3167.9789
 Red. masses --      1.0736                 1.0901                 1.0860
 Frc consts  --      5.5149                 6.2369                 6.4216
 IR Inten    --     77.1701                 6.9209                 1.1976

                     28                     29                     30
                      A                      A                      A
 Frequencies --   3172.8014              3197.7788              3203.3848
 Red. masses --      1.0886                 1.0947                 1.0980
 Frc consts  --      6.4568                 6.5955                 6.6388
 IR Inten    --     21.6502                11.7332                21.4344

 - Thermochemistry -
 -------------------
 Temperature   298.150 Kelvin.  Pressure   1.00000 Atm.
 Atom     1 has atomic number  6 and mass  12.00000

 Molecular mass:    82.04186 amu.
 Principal axes and moments of inertia in atomic units:
                           1         2         3
     Eigenvalues --   324.44886 335.98370 635.67233
           X            0.92914  -0.34060  -0.14387
           Y            0.12990  -0.06358   0.98949
           Z            0.34616   0.93806   0.01483
 This molecule is an asymmetric top.
 Rotational symmetry number  1.
 Rotational temperatures (Kelvin)      0.26696     0.25779     0.13626
 Rotational constants (GHZ):           5.56248     5.37151     2.83911
 Zero-point vibrational energy     257709.1 (Joules/Mol)
                                   61.59395 (Kcal/Mol)
 Warning -- explicit consideration of   5 degrees of freedom as
           vibrations may cause significant error
 Vibrational temperatures:    221.72   477.56   723.43   821.25   888.86
          (Kelvin)           1039.98  1088.62  1230.98  1310.88  1368.20
                             1393.92  1408.52  1430.97  1550.71  1577.07
                             1716.67  1797.33  1839.82  1972.51  2041.85
                             2085.66  2162.40  2339.95  2437.05  4248.29
                             4483.56  4558.02  4564.95  4600.89  4608.96

 Zero-point correction=                           0.098156 (Hartree/Particle)
 Thermal correction to Energy=                    0.103158
 Thermal correction to Enthalpy=                  0.104102
 Thermal correction to Gibbs Free Energy=         0.069954
 Sum of electronic and zero-point Energies=           -269.326701
 Sum of electronic and thermal Energies=              -269.321700
 Sum of electronic and thermal Enthalpies=            -269.320755
 Sum of electronic and thermal Free Energies=         -269.354904

                     E (Thermal)             CV                S
                      KCal/Mol        Cal/Mol-Kelvin    Cal/Mol-Kelvin
 Total                   64.732             18.585             71.871
 Electronic               0.000              0.000              0.000
 Translational            0.889              2.981             39.128
 Rotational               0.889              2.981             25.741
 Vibrational             62.955             12.624              7.002
 Vibration     1          0.620              1.898              2.621
 Vibration     2          0.714              1.612              1.251
 Vibration     3          0.858              1.244              0.651
 Vibration     4          0.927              1.094              0.503
 Vibration     5          0.978              0.994              0.420

                       ! Non-Optimized Parameters !
 Normal termination of Gaussian 16 at Fri Jun 10 11:45:15 2022.
