 Gaussian 16, Revision A.03,
 Gaussian 16:  ES64L-G16RevA.03 25-Dec-2016

 --------------------------
 # sp B3LYP/Def2TZVP NoSymm
 --------------------------

 ---------------------------------
 ts_initalOptXYZ_aligned_AlignedSp
 ---------------------------------
 Symbolic Z-matrix:
 Charge =  0 Multiplicity = 1

                          Input orientation:
 ---------------------------------------------------------------------
 Center     Atomic      Atomic             Coordinates (Angstroms)
 Number     Number       Type             X           Y           Z
 ---------------------------------------------------------------------
      1          6           0       -1.080256   -0.256222    0.699459
      2          6           0       -0.031193    1.608388    1.151031
      3          6           0        1.260323    1.307257   -0.695841
      4          6           0        1.260323    1.307257    0.695841
      5          1           0        2.083760    0.997095   -1.322348
      6          1           0        2.083760    0.997095    1.322348
      7          6           0       -0.751641    2.260981    0.000000
      8          1           0       -1.835463    2.174682    0.000000
      9          1           0       -0.498847    3.330134    0.000000
     10          1           0       -0.281589    1.778199   -2.188392
     11          1           0       -0.281589    1.778199    2.188392
     12          8           0        0.154454   -1.683084   -2.230963
     13          8           0        0.154454   -1.683084    2.230963
     14          6           0       -0.114512   -1.281375   -1.140209
     15          6           0       -0.114512   -1.281375    1.140209
     16          1           0       -1.913033   -0.008679   -1.337815
     17          6           0       -0.031193    1.608388   -1.151031
     18          6           0       -1.080256   -0.256222   -0.699459
     19          1           0       -1.913033   -0.008679    1.337815
     20          8           0        0.522783   -1.776397    0.000000
 ---------------------------------------------------------------------

 SCF Done:  E(RB3LYP) =  -573.600468276     A.U. after   15 cycles

 Alpha  occ. eigenvalues --  -19.18801 -19.12928 -19.12928 -10.31502 -10.31500
 Alpha  occ. eigenvalues --  -10.22617 -10.22616 -10.21748 -10.21694 -10.21152
 Alpha  occ. eigenvalues --  -10.20393 -10.20336  -1.13362  -1.07165  -1.03214
 Alpha  occ. eigenvalues --   -0.90914  -0.82686  -0.74750  -0.74476  -0.69163
 Alpha  occ. eigenvalues --   -0.62737  -0.59650  -0.58484  -0.56377  -0.55445
 Alpha  occ. eigenvalues --   -0.51203  -0.49817  -0.47073  -0.46890  -0.45160
 Alpha  occ. eigenvalues --   -0.44035  -0.42289  -0.41533  -0.41375  -0.41202
 Alpha  occ. eigenvalues --   -0.40180  -0.39361  -0.35529  -0.33232  -0.31152
 Alpha  occ. eigenvalues --   -0.28956  -0.27953  -0.27348
 Alpha virt. eigenvalues --   -0.07684  -0.06095  -0.00773   0.01750   0.03875
 Alpha virt. eigenvalues --    0.05268   0.05514   0.06178   0.07667   0.07736
 Alpha virt. eigenvalues --    0.08705   0.08963   0.11530   0.13033   0.13083

 Mulliken charges:
               1
     1  C   -0.161549
     2  C   -0.099134
     3  C   -0.141632
     4  C   -0.141632
     5  H    0.142368
     6  H    0.142368
     7  C   -0.118795
     8  H    0.116229
     9  H    0.125646
    10  H    0.140650
    11  H    0.140650
    12  O   -0.255094
    13  O   -0.255094
    14  C    0.271469
    15  C    0.271469
    16  H    0.146061
    17  C   -0.099134
    18  C   -0.161549
    19  H    0.146061
    20  O   -0.209361
 Sum of Mulliken charges =  -0.00000

 Dipole moment (field-independent basis, Debye):
    X=             -2.1473    Y=              5.7273    Z=             -0.0000  Tot=              6.1166
 Quadrupole moment (field-independent basis, Debye-Ang):
   XX=            -63.4595   YY=            -74.1300   ZZ=            -78.1167
   XY=              1.3935   XZ=              0.0000   YZ=             -0.0000

 Normal termination of Gaussian 16 at Sun Jun 12 01:14:23 2022.
