 Gaussian 16, Revision A.03,
 Gaussian 16:  ES64L-G16RevA.03 25-Dec-2016

 ----------------------------------------------------------------------
 # Opt=(TS, CalcFC, noeigentest, Z-matrix, MaxStep=10) geom=allcheckpoi
 nt guess=read Field=read NoSymm B3LYP/Def2TZVP freq=noraman pop=none
 ----------------------------------------------------------------------

 Structure from the checkpoint file:  "checkpoint.chk"
 -----------------
 ts_zmat_initalOpt
 -----------------
 Charge =  0 Multiplicity = 1

 SCF Done:  E(RB3LYP) =  -309.679563719     A.U. after   10 cycles
 SCF Done:  E(RB3LYP) =  -309.679575747     A.U. after   10 cycles
 Optimization completed.
    -- Stationary point found.
 Normal termination of Gaussian 16 at Fri Jun 10 23:14:28 2022.

 --------------------------------------------------------------------
 #N Geom=AllCheck Guess=TCheck SCRF=Check GenChk RB3LYP/def2TZVP Freq
 --------------------------------------------------------------------

 Structure from the checkpoint file:  "checkpoint.chk"
 -----------------
 ts_zmat_initalOpt
 -----------------
 Charge =  0 Multiplicity = 1

                          Input orientation:
 ---------------------------------------------------------------------
 Center     Atomic      Atomic             Coordinates (Angstroms)
 Number     Number       Type             X           Y           Z
 ---------------------------------------------------------------------
      1          1           0        0.000000    0.000000    0.000000
      2          6           0        0.000000    0.000000    1.082474
      3          6           0        1.198754    0.000000    1.766907
      4          6           0       -1.238643   -0.052588    1.761480
      5          1           0        2.142980   -0.027918    1.236493
      6          6           0        1.135122   -0.076578    3.168397
      7          6           0       -1.308242   -0.016837    3.139644
      8          1           0       -2.150329   -0.081582    1.178610
      9          6           0        2.097877   -0.380451    4.176044
     10          6           0       -0.094674    0.096304    3.838638
     11          1           0       -2.264249    0.010604    3.648542
     12          1           0        1.915011   -1.236164    4.806158
     13          6           0        0.230670    0.441258    5.183907
     14          1           0        3.143754   -0.085696    4.096826
     15          1           0        0.847343    1.310801    5.346195
     16          1           0       -0.395370    0.159901    6.030031
 ---------------------------------------------------------------------

 SCF Done:  E(RB3LYP) =  -309.679575747     A.U. after    1 cycles

 Isotropic polarizability for W=    0.000000       98.38 Bohr**3.
 End of Minotr F.D. properties file   721 does not exist.

 ******    1 imaginary frequencies (negative Signs) ******

                      1                      2                      3
                      A                      A                      A
 Frequencies --   -626.7724               224.5447               225.2425
 Red. masses --      2.1700                 2.8673                 3.2414
 Frc consts  --      0.5023                 0.0852                 0.0969
 IR Inten    --     10.4516                 0.9763                 5.1230

                      4                      5                      6
                      A                      A                      A
 Frequencies --    397.1924               432.4300               524.0770
 Red. masses --      2.7428                 2.9953                 3.1027
 Frc consts  --      0.2549                 0.3300                 0.5021
 IR Inten    --      6.3498                 5.3220                 1.1360

                      7                      8                      9
                      A                      A                      A
 Frequencies --    577.5575               592.7889               653.5599
 Red. masses --      5.2098                 4.0018                 1.2835
 Frc consts  --      1.0239                 0.8285                 0.3230
 IR Inten    --      0.1119                 4.6553                18.3253

                     10                     11                     12
                      A                      A                      A
 Frequencies --    662.5014               746.6823               775.8671
 Red. masses --      1.0968                 3.1725                 1.2363
 Frc consts  --      0.2836                 1.0421                 0.4385
 IR Inten    --      2.8532                 5.2824                56.0248

                     13                     14                     15
                      A                      A                      A
 Frequencies --    815.4660               861.1455               875.9311
 Red. masses --      3.6843                 1.3014                 1.4781
 Frc consts  --      1.4435                 0.5686                 0.6682
 IR Inten    --      0.5260                11.9039                16.0399

                     16                     17                     18
                      A                      A                      A
 Frequencies --    884.6093               890.6717               955.8376
 Red. masses --      3.6194                 1.5875                 1.3542
 Frc consts  --      1.6688                 0.7420                 0.7289
 IR Inten    --      1.2073                40.8189                 5.2769

                     19                     20                     21
                      A                      A                      A
 Frequencies --    996.7914              1010.9789              1016.9064
 Red. masses --      1.3128                 1.4641                 2.1502
 Frc consts  --      0.7685                 0.8817                 1.3101
 IR Inten    --      0.2223                 2.4647                 0.0131

                     22                     23                     24
                      A                      A                      A
 Frequencies --   1043.5455              1146.8069              1184.6561
 Red. masses --      1.5475                 1.4900                 1.1062
 Frc consts  --      0.9929                 1.1546                 0.9147
 IR Inten    --     11.5217                 0.9151                 0.0063

                     25                     26                     27
                      A                      A                      A
 Frequencies --   1238.1393              1324.3274              1332.4368
 Red. masses --      2.3427                 1.6671                 2.7646
 Frc consts  --      2.1159                 1.7227                 2.8918
 IR Inten    --      8.3027                 0.3210                 1.7179

                     28                     29                     30
                      A                      A                      A
 Frequencies --   1372.7458              1472.3416              1491.5219
 Red. masses --      4.1451                 1.3875                 1.5361
 Frc consts  --      4.6022                 1.7721                 2.0134
 IR Inten    --      0.1748                 7.5556                 4.0062

                     31                     32                     33
                      A                      A                      A
 Frequencies --   1506.0095              1525.8596              1585.9843
 Red. masses --      2.0576                 2.1210                 5.1477
 Frc consts  --      2.7496                 2.9095                 7.6289
 IR Inten    --      1.8008                 4.6045                 7.8799

                     34                     35                     36
                      A                      A                      A
 Frequencies --   1632.1445              3090.6303              3090.9904
 Red. masses --      5.5850                 1.0651                 1.0668
 Frc consts  --      8.7658                 5.9941                 6.0050
 IR Inten    --      1.2793                35.0835                39.3595

                     37                     38                     39
                      A                      A                      A
 Frequencies --   3168.9673              3172.4208              3185.9810
 Red. masses --      1.0869                 1.0885                 1.0928
 Frc consts  --      6.4312                 6.4545                 6.5356
 IR Inten    --      7.9124                 0.0089                14.7739

                     40                     41                     42
                      A                      A                      A
 Frequencies --   3197.7417              3227.1068              3228.7783
 Red. masses --      1.0961                 1.1005                 1.1013
 Frc consts  --      6.6038                 6.7527                 6.7644
 IR Inten    --      4.8841                 6.5674                 1.3627

 - Thermochemistry -
 -------------------
 Temperature   298.150 Kelvin.  Pressure   1.00000 Atm.
 Atom     1 has atomic number  1 and mass   1.00783

 Molecular mass:   104.06260 amu.
 Principal axes and moments of inertia in atomic units:
                           1         2         3
     Eigenvalues --   471.34407 811.996451239.92159
           X            0.48015   0.87255   0.09002
           Y            0.01526  -0.11092   0.99371
           Z            0.87705  -0.47576  -0.06658
 This molecule is an asymmetric top.
 Rotational symmetry number  1.
 Warning -- assumption of classical behavior for rotation
           may cause significant error
 Rotational temperatures (Kelvin)      0.18376     0.10667     0.06985
 Rotational constants (GHZ):           3.82893     2.22260     1.45553
    1 imaginary frequencies ignored.
 Zero-point vibrational energy     342968.9 (Joules/Mol)
                                   81.97153 (Kcal/Mol)
 Warning -- explicit consideration of   7 degrees of freedom as
           vibrations may cause significant error
 Vibrational temperatures:    323.07   324.07   571.47   622.17   754.03
          (Kelvin)            830.98   852.89   940.33   953.19  1074.31
                             1116.30  1173.27  1239.00  1260.27  1272.76
                             1281.48  1375.24  1434.16  1454.57  1463.10
                             1501.43  1650.00  1704.46  1781.41  1905.41
                             1917.08  1975.07  2118.37  2145.97  2166.81
                             2195.37  2281.88  2348.29  4446.73  4447.25
                             4559.44  4564.41  4583.92  4600.84  4643.09
                             4645.49

 Zero-point correction=                           0.130630 (Hartree/Particle)
 Thermal correction to Energy=                    0.136683
 Thermal correction to Enthalpy=                  0.137627
 Thermal correction to Gibbs Free Energy=         0.100835
 Sum of electronic and zero-point Energies=           -309.548946
 Sum of electronic and thermal Energies=              -309.542893
 Sum of electronic and thermal Enthalpies=            -309.541948
 Sum of electronic and thermal Free Energies=         -309.578741

                     E (Thermal)             CV                S
                      KCal/Mol        Cal/Mol-Kelvin    Cal/Mol-Kelvin
 Total                   85.770             25.067             77.437
 Electronic               0.000              0.000              0.000
 Translational            0.889              2.981             39.837
 Rotational               0.889              2.981             27.653
 Vibrational             83.993             19.106              9.947
 Vibration     1          0.649              1.804              1.922
 Vibration     2          0.650              1.803              1.917
 Vibration     3          0.764              1.476              0.973
 Vibration     4          0.793              1.400              0.851
 Vibration     5          0.879              1.197              0.601
 Vibration     6          0.934              1.080              0.490
 Vibration     7          0.950              1.047              0.462

 Optimization completed.
    -- Stationary point found.
 Normal termination of Gaussian 16 at Fri Jun 10 23:21:30 2022.
