 Gaussian 16, Revision A.03,
 Gaussian 16:  ES64L-G16RevA.03 25-Dec-2016

 ----------------------------------------------------------------------
 # Opt=(Z-matrix, MaxStep=10) B3LYP/Def2TZVP Field=read NoSymm freq=nor
 aman pop=none
 ----------------------------------------------------------------------

 ------------------
 int_zmat_initalOpt
 ------------------
 Symbolic Z-matrix:
 Charge =  0 Multiplicity = 1

 SCF Done:  E(RB3LYP) =  -387.392666818     A.U. after   14 cycles
 SCF Done:  E(RB3LYP) =  -387.392690931     A.U. after    9 cycles
 SCF Done:  E(RB3LYP) =  -387.392713016     A.U. after   11 cycles
 SCF Done:  E(RB3LYP) =  -387.392721382     A.U. after    8 cycles
 SCF Done:  E(RB3LYP) =  -387.392717540     A.U. after   11 cycles
 SCF Done:  E(RB3LYP) =  -387.392726501     A.U. after    9 cycles
 SCF Done:  E(RB3LYP) =  -387.392727324     A.U. after    7 cycles
 SCF Done:  E(RB3LYP) =  -387.392727790     A.U. after    8 cycles
 SCF Done:  E(RB3LYP) =  -387.392728065     A.U. after    7 cycles
 SCF Done:  E(RB3LYP) =  -387.392728159     A.U. after    7 cycles
 Optimization completed.
    -- Stationary point found.

 1\1\GINC-BHC0034\FOpt\RB3LYP\def2TZVP\C8H12O1\DHANAWAY\10-Jun-2022\1\\
 # Opt=(Z-matrix, MaxStep=10) B3LYP/Def2TZVP Field=read NoSymm freq=nor
 aman pop=none\\int_zmat_initalOpt\\0,1\C\C,1,R2\C,1,R3,2,A3\C,1,R4,2,A
 4,3,D4,0\H,2,R5,1,A5,3,D5,0\C,2,R6,1,A6,5,D6,0\O,3,R7,1,A7,2,D7,0\H,3,
 R8,1,A8,7,D8,0\H,3,R9,1,A9,7,D9,0\C,4,R10,1,A10,2,D10,0\C,4,R11,1,A11,
 10,D11,0\H,4,R12,1,A12,10,D12,0\H,6,R13,2,A13,1,D13,0\H,6,R14,2,A14,13
 ,D14,0\H,6,R15,2,A15,13,D15,0\H,10,R16,4,A16,1,D16,0\H,10,R17,4,A17,16
 ,D17,0\C,11,R18,4,A18,1,D18,0\H,11,R19,4,A19,18,D19,0\H,18,R20,11,A20,

 Normal termination of Gaussian 16 at Fri Jun 10 12:04:32 2022.

 --------------------------------------------------------------------
 #N Geom=AllCheck Guess=TCheck SCRF=Check GenChk RB3LYP/def2TZVP Freq
 --------------------------------------------------------------------

 Structure from the checkpoint file:  "checkpoint.chk"
 ------------------
 int_zmat_initalOpt
 ------------------
 Charge =  0 Multiplicity = 1

                          Input orientation:
 ---------------------------------------------------------------------
 Center     Atomic      Atomic             Coordinates (Angstroms)
 Number     Number       Type             X           Y           Z
 ---------------------------------------------------------------------
      1          6           0        0.000000    0.000000    0.000000
      2          6           0        0.000000    0.000000    1.327810
      3          6           0        1.219758    0.000000   -0.899599
      4          6           0       -1.209457    0.038821   -0.928107
      5          1           0       -0.951625    0.023814    1.849622
      6          6           0        1.214168   -0.045410    2.205208
      7          8           0        0.732330    0.067878   -2.240610
      8          1           0        1.823210   -0.906696   -0.810428
      9          1           0        1.868014    0.861519   -0.688632
     10          6           0       -0.581768    0.614507   -2.200205
     11          6           0       -2.430850    0.721233   -0.391986
     12          1           0       -1.481525   -1.003989   -1.147337
     13          1           0        2.143953   -0.019302    1.636398
     14          1           0        1.221327   -0.954923    2.813351
     15          1           0        1.221989    0.795428    2.905009
     16          1           0       -1.092978    0.321551   -3.116922
     17          1           0       -0.541128    1.711483   -2.149338
     18          6           0       -3.108875    1.702634   -0.974931
     19          1           0       -2.795192    0.336070    0.555696
     20          1           0       -2.818804    2.127511   -1.928243
     21          1           0       -3.995501    2.117613   -0.512945
 ---------------------------------------------------------------------

 SCF Done:  E(RB3LYP) =  -387.392728159     A.U. after    1 cycles

 Isotropic polarizability for W=    0.000000       97.37 Bohr**3.
 End of Minotr F.D. properties file   721 does not exist.

                      1                      2                      3
                      A                      A                      A
 Frequencies --     54.2526                78.3237               121.8561
 Red. masses --      2.3938                 2.5104                 1.0277
 Frc consts  --      0.0042                 0.0091                 0.0090
 IR Inten    --      0.3499                 0.2285                 0.2768

                      4                      5                      6
                      A                      A                      A
 Frequencies --    178.8513               185.3676               206.3448
 Red. masses --      2.5168                 2.9550                 2.5168
 Frc consts  --      0.0474                 0.0598                 0.0631
 IR Inten    --      0.3054                 0.1735                 8.4216

                      7                      8                      9
                      A                      A                      A
 Frequencies --    239.9286               322.8185               434.0892
 Red. masses --      2.9777                 2.5262                 2.7242
 Frc consts  --      0.1010                 0.1551                 0.3024
 IR Inten    --      0.6242                 0.3843                 0.9710

                     10                     11                     12
                      A                      A                      A
 Frequencies --    486.6730               531.5957               572.8908
 Red. masses --      2.6375                 2.3582                 2.8670
 Frc consts  --      0.3681                 0.3926                 0.5544
 IR Inten    --      3.1213                 3.3764                 2.1800

                     13                     14                     15
                      A                      A                      A
 Frequencies --    644.3442               695.9485               792.8640
 Red. masses --      4.8715                 1.9796                 2.2327
 Frc consts  --      1.1916                 0.5649                 0.8270
 IR Inten    --      1.2401                12.6015                 6.4722

                     16                     17                     18
                      A                      A                      A
 Frequencies --    856.7836               944.9160               946.8968
 Red. masses --      1.2964                 3.6363                 1.3834
 Frc consts  --      0.5607                 1.9129                 0.7308
 IR Inten    --      7.3674                38.9156                35.8080

                     19                     20                     21
                      A                      A                      A
 Frequencies --    957.5790               987.1198              1007.4602
 Red. masses --      3.4003                 1.6576                 1.6611
 Frc consts  --      1.8370                 0.9516                 0.9933
 IR Inten    --     12.9938                14.0186                 9.7866

                     22                     23                     24
                      A                      A                      A
 Frequencies --   1017.5664              1033.6407              1049.4986
 Red. masses --      1.5285                 1.3385                 1.4804
 Frc consts  --      0.9325                 0.8426                 0.9607
 IR Inten    --      6.1940                 1.8886                11.8002

                     25                     26                     27
                      A                      A                      A
 Frequencies --   1065.5322              1088.0346              1106.3691
 Red. masses --      1.5635                 4.6362                 3.2730
 Frc consts  --      1.0459                 3.2337                 2.3605
 IR Inten    --      1.0171                36.5500                51.7465

                     28                     29                     30
                      A                      A                      A
 Frequencies --   1166.0254              1190.7876              1223.9041
 Red. masses --      2.1135                 2.0025                 1.1787
 Frc consts  --      1.6931                 1.6729                 1.0403
 IR Inten    --      6.5689                 8.2160                 0.5864

                     31                     32                     33
                      A                      A                      A
 Frequencies --   1245.4311              1284.4151              1316.4887
 Red. masses --      1.3482                 1.2580                 1.4031
 Frc consts  --      1.2321                 1.2228                 1.4328
 IR Inten    --      1.4742                 3.9230                 0.1640

                     34                     35                     36
                      A                      A                      A
 Frequencies --   1335.9316              1351.9866              1385.8745
 Red. masses --      1.2406                 1.2450                 1.4283
 Frc consts  --      1.3046                 1.3407                 1.6163
 IR Inten    --      2.5978                 0.7926                 4.3352

                     37                     38                     39
                      A                      A                      A
 Frequencies --   1398.6390              1418.5410              1463.3085
 Red. masses --      1.5215                 1.2776                 1.2055
 Frc consts  --      1.7536                 1.5147                 1.5209
 IR Inten    --      4.3456                 0.8404                 1.9081

                     40                     41                     42
                      A                      A                      A
 Frequencies --   1483.6825              1492.4921              1504.8494
 Red. masses --      1.0435                 1.0600                 1.0819
 Frc consts  --      1.3534                 1.3912                 1.4436
 IR Inten    --      5.5125                10.9771                 0.0570

                     43                     44                     45
                      A                      A                      A
 Frequencies --   1521.5675              1704.2995              1751.0782
 Red. masses --      1.0942                 4.5440                 7.7342
 Frc consts  --      1.4926                 7.7764                13.9726
 IR Inten    --      1.1516                19.6824                 0.7804

                     46                     47                     48
                      A                      A                      A
 Frequencies --   2962.8634              2971.0272              2978.2968
 Red. masses --      1.0767                 1.0721                 1.0742
 Frc consts  --      5.5688                 5.5756                 5.6140
 IR Inten    --     14.2307                46.2086                66.3890

                     49                     50                     51
                      A                      A                      A
 Frequencies --   3020.3070              3049.5981              3059.3084
 Red. masses --      1.0380                 1.0905                 1.0992
 Frc consts  --      5.5792                 5.9755                 6.0616
 IR Inten    --     29.9983                26.1852                12.9882

                     52                     53                     54
                      A                      A                      A
 Frequencies --   3094.3609              3100.5566              3136.4949
 Red. masses --      1.0931                 1.0979                 1.0736
 Frc consts  --      6.1665                 6.2186                 6.2226
 IR Inten    --     32.6387                15.1351                 7.7406

                     55                     56                     57
                      A                      A                      A
 Frequencies --   3142.9181              3147.3607              3218.3799
 Red. masses --      1.0748                 1.0879                 1.1153
 Frc consts  --      6.2553                 6.3495                 6.8063
 IR Inten    --      5.0664                19.7863                13.3949

 - Thermochemistry -
 -------------------
 Temperature   298.150 Kelvin.  Pressure   1.00000 Atm.
 Atom     1 has atomic number  6 and mass  12.00000

 Molecular mass:   124.08882 amu.
 Principal axes and moments of inertia in atomic units:
                           1         2         3
     Eigenvalues --   836.550621356.445332063.59125
           X            0.75731  -0.57882   0.30242
           Y           -0.26956   0.14474   0.95204
           Z            0.59483   0.80251   0.04642
 This molecule is an asymmetric top.
 Rotational symmetry number  1.
 Warning -- assumption of classical behavior for rotation
           may cause significant error
 Rotational temperatures (Kelvin)      0.10354     0.06385     0.04197
 Rotational constants (GHZ):           2.15736     1.33049     0.87456
 Zero-point vibrational energy     476881.3 (Joules/Mol)
                                  113.97735 (Kcal/Mol)
 Warning -- explicit consideration of  12 degrees of freedom as
           vibrations may cause significant error
 Vibrational temperatures:     78.06   112.69   175.32   257.33   266.70
          (Kelvin)            296.88   345.20   464.46   624.56   700.21
                              764.85   824.26   927.07  1001.31  1140.75
                             1232.72  1359.52  1362.37  1377.74  1420.25
                             1449.51  1464.05  1487.18  1509.99  1533.06
                             1565.44  1591.82  1677.65  1713.28  1760.93
                             1791.90  1847.99  1894.13  1922.11  1945.21
                             1993.96  2012.33  2040.96  2105.37  2134.69
                             2147.36  2165.14  2189.20  2452.11  2519.41
                             4262.90  4274.65  4285.10  4345.55  4387.69
                             4401.66  4452.10  4461.01  4512.72  4521.96
                             4528.35  4630.53

 Zero-point correction=                           0.181634 (Hartree/Particle)
 Thermal correction to Energy=                    0.191214
 Thermal correction to Enthalpy=                  0.192158
 Thermal correction to Gibbs Free Energy=         0.146498
 Sum of electronic and zero-point Energies=           -387.211094
 Sum of electronic and thermal Energies=              -387.201514
 Sum of electronic and thermal Enthalpies=            -387.200570
 Sum of electronic and thermal Free Energies=         -387.246230

                     E (Thermal)             CV                S
                      KCal/Mol        Cal/Mol-Kelvin    Cal/Mol-Kelvin
 Total                  119.989             34.843             96.100
 Electronic               0.000              0.000              0.000
 Translational            0.889              2.981             40.361
 Rotational               0.889              2.981             29.239
 Vibrational            118.211             28.881             26.499
 Vibration     1          0.596              1.976              4.656
 Vibration     2          0.600              1.964              3.932
 Vibration     3          0.609              1.931              3.071
 Vibration     4          0.629              1.868              2.340
 Vibration     5          0.631              1.860              2.274
 Vibration     6          0.641              1.831              2.076
 Vibration     7          0.657              1.779              1.803
 Vibration     8          0.708              1.630              1.296
 Vibration     9          0.795              1.396              0.845
 Vibration    10          0.843              1.280              0.692
 Vibration    11          0.887              1.180              0.584
 Vibration    12          0.929              1.090              0.499

                       ! Non-Optimized Parameters !

 1\1\GINC-BHC0034\Freq\RB3LYP\def2TZVP\C8H12O1\DHANAWAY\10-Jun-2022\1\\
 #N Geom=AllCheck Guess=TCheck SCRF=Check GenChk RB3LYP/def2TZVP Freq\\
 int_zmat_initalOpt\\0,1\C\C,1,R2\C,1,R3,2,A3\C,1,R4,2,A4,3,D4,0\H,2,R5
 ,1,A5,3,D5,0\C,2,R6,1,A6,5,D6,0\O,3,R7,1,A7,2,D7,0\H,3,R8,1,A8,7,D8,0\
 H,3,R9,1,A9,7,D9,0\C,4,R10,1,A10,2,D10,0\C,4,R11,1,A11,10,D11,0\H,4,R1
 2,1,A12,10,D12,0\H,6,R13,2,A13,1,D13,0\H,6,R14,2,A14,13,D14,0\H,6,R15,
 2,A15,13,D15,0\H,10,R16,4,A16,1,D16,0\H,10,R17,4,A17,16,D17,0\C,11,R18
 ,4,A18,1,D18,0\H,11,R19,4,A19,18,D19,0\H,18,R20,11,A20,4,D20,0\H,18,R2

 Normal termination of Gaussian 16 at Fri Jun 10 12:16:35 2022.
