 Gaussian 16, Revision A.03,
 Gaussian 16:  ES64L-G16RevA.03 25-Dec-2016

 ----------------------------------------------------------------------
 # Opt=(TS, CalcFC, noeigentest, Z-matrix, MaxStep=10) geom=allcheckpoi
 nt guess=read Field=read NoSymm B3LYP/Def2TZVP freq=noraman pop=none
 ----------------------------------------------------------------------

 Structure from the checkpoint file:  "checkpoint.chk"
 -----------------
 ts_zmat_initalOpt
 -----------------
 Charge =  0 Multiplicity = 1

 SCF Done:  E(RB3LYP) =  -387.298665138     A.U. after   11 cycles
 SCF Done:  E(RB3LYP) =  -387.298698467     A.U. after   11 cycles
 Optimization completed.
    -- Stationary point found.
 Normal termination of Gaussian 16 at Fri Jun 10 13:54:16 2022.

 --------------------------------------------------------------------
 #N Geom=AllCheck Guess=TCheck SCRF=Check GenChk RB3LYP/def2TZVP Freq
 --------------------------------------------------------------------

 Structure from the checkpoint file:  "checkpoint.chk"
 -----------------
 ts_zmat_initalOpt
 -----------------
 Charge =  0 Multiplicity = 1

                          Input orientation:
 ---------------------------------------------------------------------
 Center     Atomic      Atomic             Coordinates (Angstroms)
 Number     Number       Type             X           Y           Z
 ---------------------------------------------------------------------
      1          6           0        0.000000    0.000000    0.000000
      2          6           0        0.000000    0.000000    1.249523
      3          6           0        0.628844    0.000000   -1.320460
      4          6           0        0.695981   -0.427541    2.490584
      5          8           0        0.401251    1.261461   -1.995137
      6          1           0        0.252814   -0.812291   -1.949837
      7          1           0        1.711715   -0.116193   -1.222806
      8          1           0        1.675898   -0.852184    2.271314
      9          1           0        0.108465   -1.183652    3.015173
     10          1           0        0.820659    0.411712    3.177679
     11          6           0       -0.649931    2.022277   -1.388184
     12          6           0       -1.719457    1.111905   -0.871267
     13          1           0       -1.028955    2.658369   -2.198287
     14          1           0       -0.257182    2.675051   -0.599779
     15          6           0       -2.513539    1.240078    0.250478
     16          1           0       -2.119816    0.472142   -1.655668
     17          6           0       -2.055663    1.709304    1.495952
     18          1           0       -3.382640    0.589619    0.283341
     19          1           0       -1.124299    0.723935    1.627871
     20          1           0       -1.360456    2.542919    1.540574
     21          1           0       -2.735519    1.666590    2.340025
 ---------------------------------------------------------------------

 SCF Done:  E(RB3LYP) =  -387.298698467     A.U. after    1 cycles

 Isotropic polarizability for W=    0.000000      106.32 Bohr**3.
 End of Minotr F.D. properties file   721 does not exist.

 ******    1 imaginary frequencies (negative Signs) ******

                      1                      2                      3
                      A                      A                      A
 Frequencies --  -1176.0792               112.3681               117.5379
 Red. masses --      1.4585                 2.3429                 1.1333
 Frc consts  --      1.1886                 0.0174                 0.0092
 IR Inten    --      6.9598                 0.9974                 0.0854

                      4                      5                      6
                      A                      A                      A
 Frequencies --    155.4521               204.2380               214.3590
 Red. masses --      3.1629                 2.4261                 2.8161
 Frc consts  --      0.0450                 0.0596                 0.0762
 IR Inten    --      6.9876                 2.8302                 2.6525

                      7                      8                      9
                      A                      A                      A
 Frequencies --    247.5371               264.5721               350.5309
 Red. masses --      3.6249                 2.6638                 3.6592
 Frc consts  --      0.1309                 0.1099                 0.2649
 IR Inten    --      2.4897                 0.3666                 0.7998

                     10                     11                     12
                      A                      A                      A
 Frequencies --    410.3815               421.2560               482.2120
 Red. masses --      2.9275                 2.8091                 3.9892
 Frc consts  --      0.2905                 0.2937                 0.5465
 IR Inten    --      0.3771                 3.2784                 3.2236

                     13                     14                     15
                      A                      A                      A
 Frequencies --    567.6417               583.0251               648.0954
 Red. masses --      2.6566                 3.6311                 3.5835
 Frc consts  --      0.5043                 0.7272                 0.8868
 IR Inten    --      0.2922                 6.9878                 2.1549

                     16                     17                     18
                      A                      A                      A
 Frequencies --    718.2761               844.4456               848.4085
 Red. masses --      1.4895                 2.1604                 1.4712
 Frc consts  --      0.4528                 0.9077                 0.6239
 IR Inten    --     20.8885                 9.2156                21.6134

                     19                     20                     21
                      A                      A                      A
 Frequencies --    881.6467               960.1788              1009.9672
 Red. masses --      4.6786                 1.8717                 1.6519
 Frc consts  --      2.1427                 1.0167                 0.9928
 IR Inten    --     44.4026                10.7928                 8.1236

                     22                     23                     24
                      A                      A                      A
 Frequencies --   1018.1823              1026.2442              1041.7185
 Red. masses --      1.9590                 1.5596                 2.5295
 Frc consts  --      1.1966                 0.9678                 1.6173
 IR Inten    --     24.2731                 0.6023                47.8311

                     25                     26                     27
                      A                      A                      A
 Frequencies --   1050.9646              1059.6694              1068.4630
 Red. masses --      1.4396                 1.4620                 1.6931
 Frc consts  --      0.9368                 0.9673                 1.1388
 IR Inten    --     11.8240                 9.5413                 2.2138

                     28                     29                     30
                      A                      A                      A
 Frequencies --   1119.0542              1137.1454              1198.5190
 Red. masses --      2.0945                 2.4040                 1.4192
 Frc consts  --      1.5453                 1.8316                 1.2011
 IR Inten    --      9.6444                17.0243                 1.6419

                     31                     32                     33
                      A                      A                      A
 Frequencies --   1224.7182              1246.4181              1294.8899
 Red. masses --      1.2202                 1.1649                 1.0723
 Frc consts  --      1.0784                 1.0663                 1.0593
 IR Inten    --     16.3575                11.4734                 9.9088

                     34                     35                     36
                      A                      A                      A
 Frequencies --   1324.5683              1347.9100              1376.0675
 Red. masses --      1.2387                 1.2295                 1.3072
 Frc consts  --      1.2805                 1.3161                 1.4583
 IR Inten    --      6.6415                 3.6242                34.4778

                     37                     38                     39
                      A                      A                      A
 Frequencies --   1412.6103              1427.3242              1454.7848
 Red. masses --      1.1917                 1.0944                 1.2480
 Frc consts  --      1.4011                 1.3136                 1.5562
 IR Inten    --      3.1324                 1.8279                 0.5588

                     40                     41                     42
                      A                      A                      A
 Frequencies --   1477.0793              1483.3339              1506.6090
 Red. masses --      1.0439                 1.0432                 1.0932
 Frc consts  --      1.3419                 1.3524                 1.4621
 IR Inten    --     11.7153                12.6466                 0.6087

                     43                     44                     45
                      A                      A                      A
 Frequencies --   1510.5593              1516.1304              1619.5971
 Red. masses --      1.0967                 1.4805                 4.1077
 Frc consts  --      1.4745                 2.0051                 6.3483
 IR Inten    --      1.8362                 2.2407                24.7389

                     46                     47                     48
                      A                      A                      A
 Frequencies --   2047.7779              2977.3117              3003.8593
 Red. masses --      8.5637                 1.0591                 1.1009
 Frc consts  --     21.1582                 5.5314                 5.8528
 IR Inten    --     26.6605               122.5889                45.0748

                     49                     50                     51
                      A                      A                      A
 Frequencies --   3017.1490              3037.5525              3051.2159
 Red. masses --      1.0586                 1.0341                 1.1044
 Frc consts  --      5.6780                 5.6216                 6.0580
 IR Inten    --     41.1260                13.9469                13.2762

                     52                     53                     54
                      A                      A                      A
 Frequencies --   3094.0199              3103.8439              3106.0063
 Red. masses --      1.1001                 1.0820                 1.0617
 Frc consts  --      6.2049                 6.1414                 6.0348
 IR Inten    --      5.4383                29.1694                 4.9961

                     55                     56                     57
                      A                      A                      A
 Frequencies --   3111.3085              3137.6703              3184.2580
 Red. masses --      1.1037                 1.0895                 1.1103
 Frc consts  --      6.2952                 6.3198                 6.6331
 IR Inten    --      4.7476                12.6851                10.0596

 - Thermochemistry -
 -------------------
 Temperature   298.150 Kelvin.  Pressure   1.00000 Atm.
 Atom     1 has atomic number  6 and mass  12.00000

 Molecular mass:   124.08882 amu.
 Principal axes and moments of inertia in atomic units:
                           1         2         3
     Eigenvalues --   908.739971210.449531881.25878
           X            0.03304   0.87328   0.48610
           Y           -0.30301  -0.45472   0.83750
           Z            0.95241  -0.17496   0.24959
 This molecule is an asymmetric top.
 Rotational symmetry number  1.
 Warning -- assumption of classical behavior for rotation
           may cause significant error
 Rotational temperatures (Kelvin)      0.09531     0.07156     0.04604
 Rotational constants (GHZ):           1.98598     1.49097     0.95933
    1 imaginary frequencies ignored.
 Zero-point vibrational energy     459704.9 (Joules/Mol)
                                  109.87212 (Kcal/Mol)
 Warning -- explicit consideration of  13 degrees of freedom as
           vibrations may cause significant error
 Vibrational temperatures:    161.67   169.11   223.66   293.85   308.41
          (Kelvin)            356.15   380.66   504.34   590.45   606.09
                              693.80   816.71   838.84   932.46  1033.44
                             1214.97  1220.67  1268.49  1381.48  1453.12
                             1464.94  1476.54  1498.80  1512.10  1524.63
                             1537.28  1610.07  1636.10  1724.40  1762.10
                             1793.32  1863.06  1905.76  1939.34  1979.85
                             2032.43  2053.60  2093.11  2125.19  2134.19
                             2167.67  2173.36  2181.37  2330.24  2946.30
                             4283.69  4321.88  4341.00  4370.36  4390.02
                             4451.60  4465.74  4468.85  4476.48  4514.41
                             4581.44

 Zero-point correction=                           0.175092 (Hartree/Particle)
 Thermal correction to Energy=                    0.184429
 Thermal correction to Enthalpy=                  0.185373
 Thermal correction to Gibbs Free Energy=         0.141253
 Sum of electronic and zero-point Energies=           -387.123606
 Sum of electronic and thermal Energies=              -387.114269
 Sum of electronic and thermal Enthalpies=            -387.113325
 Sum of electronic and thermal Free Energies=         -387.157445

                     E (Thermal)             CV                S
                      KCal/Mol        Cal/Mol-Kelvin    Cal/Mol-Kelvin
 Total                  115.731             35.316             92.858
 Electronic               0.000              0.000              0.000
 Translational            0.889              2.981             40.361
 Rotational               0.889              2.981             29.116
 Vibrational            113.953             29.355             23.381
 Vibration     1          0.607              1.939              3.228
 Vibration     2          0.608              1.935              3.140
 Vibration     3          0.620              1.897              2.604
 Vibration     4          0.640              1.834              2.095
 Vibration     5          0.644              1.819              2.006
 Vibration     6          0.661              1.767              1.748
 Vibration     7          0.671              1.738              1.631
 Vibration     8          0.727              1.574              1.164
 Vibration     9          0.775              1.448              0.925
 Vibration    10          0.784              1.424              0.888
 Vibration    11          0.838              1.290              0.704
 Vibration    12          0.924              1.101              0.509
 Vibration    13          0.940              1.068              0.480

 Optimization completed.
    -- Stationary point found.

 1\1\GINC-BHC0018\Freq\RB3LYP\def2TZVP\C8H12O1\DHANAWAY\10-Jun-2022\1\\
 #N Geom=AllCheck Guess=TCheck SCRF=Check GenChk RB3LYP/def2TZVP Freq\\
 ts_zmat_initalOpt\\0,1\C\C,1,R2\C,1,R3,2,A3\C,2,R4,1,A4,3,D4,0\O,3,R5,
 1,A5,2,D5,0\H,3,R6,1,A6,5,D6,0\H,3,R7,1,A7,5,D7,0\H,4,R8,2,A8,1,D8,0\H
 ,4,R9,2,A9,8,D9,0\H,4,R10,2,A10,8,D10,0\C,5,R11,3,A11,1,D11,0\C,11,R12
 ,5,A12,3,D12,0\H,11,R13,5,A13,12,D13,0\H,11,R14,5,A14,12,D14,0\C,12,R1
 5,11,A15,5,D15,0\H,12,R16,11,A16,15,D16,0\C,15,R17,12,A17,11,D17,0\H,1
 5,R18,12,A18,17,D18,0\H,17,R19,15,A19,12,D19,0\H,17,R20,15,A20,19,D20,

 Normal termination of Gaussian 16 at Fri Jun 10 14:06:51 2022.
