 Gaussian 16, Revision A.03,
 Gaussian 16:  ES64L-G16RevA.03 25-Dec-2016

 ----------------------------------------------------------------------
 # Opt=(TS, CalcFC, noeigentest, Z-matrix, MaxStep=10) geom=allcheckpoi
 nt guess=read Field=read NoSymm B3LYP/Def2TZVP freq=noraman pop=none
 ----------------------------------------------------------------------

 Structure from the checkpoint file:  "checkpoint.chk"
 -----------------
 ts_zmat_initalOpt
 -----------------
 Charge =  0 Multiplicity = 1

 SCF Done:  E(RB3LYP) =  -439.143553921     A.U. after   11 cycles
 SCF Done:  E(RB3LYP) =  -439.143577870     A.U. after   12 cycles
 Optimization completed.
    -- Stationary point found.

 1\1\GINC-BHC0011\FTS\RB3LYP\def2TZVP\C8H7N1O1\DHANAWAY\10-Jun-2022\1\\
 # Opt=(TS, CalcFC, noeigentest, Z-matrix, MaxStep=10) geom=allcheckpoi
 nt guess=read Field=read NoSymm B3LYP/Def2TZVP freq=noraman pop=none\\
 ts_zmat_initalOpt\\0,1\C\C,1,R2\C,1,R3,2,A3\N,1,R4,2,A4,3,D4,0\C,3,R5,
 1,A5,2,D5,0\H,2,R6,1,A6,3,D6,0\H,3,R7,1,A7,5,D7,0\C,2,R8,1,A8,6,D8,0\C
 ,4,R9,1,A9,2,D9,0\H,4,R10,1,A10,9,D10,0\C,5,R11,3,A11,1,D11,0\H,5,R12,
 3,A12,11,D12,0\H,8,R13,2,A13,1,D13,0\H,9,R14,4,A14,1,D14,0\C,11,R15,5,
 A15,3,D15,0\H,11,R16,5,A16,15,D16,0\O,15,R17,11,A17,5,D17,0\\R2=1.4138

 Normal termination of Gaussian 16 at Fri Jun 10 12:18:55 2022.

 --------------------------------------------------------------------
 #N Geom=AllCheck Guess=TCheck SCRF=Check GenChk RB3LYP/def2TZVP Freq
 --------------------------------------------------------------------

 Structure from the checkpoint file:  "checkpoint.chk"
 -----------------
 ts_zmat_initalOpt
 -----------------
 Charge =  0 Multiplicity = 1

                          Input orientation:
 ---------------------------------------------------------------------
 Center     Atomic      Atomic             Coordinates (Angstroms)
 Number     Number       Type             X           Y           Z
 ---------------------------------------------------------------------
      1          6           0        0.000000    0.000000    0.000000
      2          6           0        0.000000    0.000000    1.413809
      3          6           0        1.158345    0.000000   -0.819756
      4          7           0       -1.285399    0.173863   -0.404350
      5          6           0        2.296740    0.563620   -0.322530
      6          1           0        0.697908   -0.618903    1.962705
      7          1           0        1.110766   -0.315978   -1.852893
      8          6           0       -1.371000    0.183055    1.823724
      9          6           0       -2.121424    0.294356    0.696299
     10          1           0       -1.567536    0.313798   -1.360782
     11          6           0        2.469940    1.190395    0.943819
     12          1           0        3.153494    0.620478   -0.983738
     13          1           0       -1.742099    0.204275    2.834539
     14          1           0       -3.179509    0.444682    0.564171
     15          6           0        1.560980    1.323155    1.957322
     16          1           0        3.347691    1.814799    1.084272
     17          8           0        1.374592    1.717059    3.058568
 ---------------------------------------------------------------------

 SCF Done:  E(RB3LYP) =  -439.143577870     A.U. after    1 cycles

 Isotropic polarizability for W=    0.000000      107.74 Bohr**3.
 End of Minotr F.D. properties file   721 does not exist.

 ******    1 imaginary frequencies (negative Signs) ******

                      1                      2                      3
                      A                      A                      A
 Frequencies --   -406.9108               111.7747               137.0399
 Red. masses --      6.8329                 6.0029                 4.6282
 Frc consts  --      0.6666                 0.0442                 0.0512
 IR Inten    --    172.4274                 1.2300                 1.7649

                      4                      5                      6
                      A                      A                      A
 Frequencies --    270.3287               288.9276               333.0159
 Red. masses --      4.8502                 3.3668                 7.6020
 Frc consts  --      0.2088                 0.1656                 0.4967
 IR Inten    --     20.5497                 3.3041                 4.3404

                      7                      8                      9
                      A                      A                      A
 Frequencies --    460.5987               511.1496               558.7886
 Red. masses --      4.7156                 3.9538                 2.9516
 Frc consts  --      0.5894                 0.6086                 0.5430
 IR Inten    --      7.1211                 4.2877                 0.4813

                     10                     11                     12
                      A                      A                      A
 Frequencies --    572.9139               611.0429               625.6378
 Red. masses --      1.3410                 3.0924                 3.1743
 Frc consts  --      0.2593                 0.6803                 0.7321
 IR Inten    --     49.4390                 7.5567                 4.4090

                     13                     14                     15
                      A                      A                      A
 Frequencies --    677.3546               707.5935               740.9476
 Red. masses --      1.7163                 1.7515                 1.7117
 Frc consts  --      0.4640                 0.5167                 0.5537
 IR Inten    --     34.6840                89.3237                34.1017

                     16                     17                     18
                      A                      A                      A
 Frequencies --    767.7519               805.7625               849.3066
 Red. masses --      1.7725                 2.1351                 4.3454
 Frc consts  --      0.6156                 0.8167                 1.8467
 IR Inten    --      2.2011                67.0996                34.1635

                     19                     20                     21
                      A                      A                      A
 Frequencies --    862.0053               896.0100               972.2307
 Red. masses --      1.3355                 5.4413                 1.3791
 Frc consts  --      0.5847                 2.5738                 0.7680
 IR Inten    --      1.5643                 8.1809                 2.1452

                     22                     23                     24
                      A                      A                      A
 Frequencies --    989.6673               995.9817              1042.1002
 Red. masses --      2.3461                 2.0054                 1.3754
 Frc consts  --      1.3538                 1.1721                 0.8800
 IR Inten    --      4.7705                 7.8135                 6.7178

                     25                     26                     27
                      A                      A                      A
 Frequencies --   1096.5672              1126.8078              1143.6117
 Red. masses --      2.0330                 1.6404                 1.4243
 Frc consts  --      1.4403                 1.2272                 1.0975
 IR Inten    --     11.7374                 5.2040                 7.0543

                     28                     29                     30
                      A                      A                      A
 Frequencies --   1205.1468              1247.7482              1284.1385
 Red. masses --      1.1303                 1.9414                 1.7286
 Frc consts  --      0.9672                 1.7808                 1.6795
 IR Inten    --     15.7287                 1.4780                 3.0860

                     31                     32                     33
                      A                      A                      A
 Frequencies --   1388.6152              1407.8904              1436.3847
 Red. masses --      1.8772                 2.6058                 3.1252
 Frc consts  --      2.1327                 3.0432                 3.7990
 IR Inten    --     14.0583                 9.4376                50.4904

                     34                     35                     36
                      A                      A                      A
 Frequencies --   1460.5589              1540.5008              1582.0599
 Red. masses --      2.1967                 4.9029                 4.8872
 Frc consts  --      2.7609                 6.8553                 7.2070
 IR Inten    --     13.3235                11.9752               148.4594

                     37                     38                     39
                      A                      A                      A
 Frequencies --   1602.1723              1931.6592              3134.7999
 Red. masses --      3.6336                12.6451                 1.0842
 Frc consts  --      5.4954                27.7992                 6.2772
 IR Inten    --     17.4356               795.0044                 9.8769

                     40                     41                     42
                      A                      A                      A
 Frequencies --   3172.3688              3176.1199              3197.9178
 Red. masses --      1.0874                 1.0900                 1.0930
 Frc consts  --      6.4480                 6.4782                 6.5860
 IR Inten    --      3.5842                 3.0015                 1.2813

                     43                     44                     45
                      A                      A                      A
 Frequencies --   3245.2026              3265.7915              3628.4192
 Red. masses --      1.0897                 1.1040                 1.0803
 Frc consts  --      6.7614                 6.9372                 8.3796
 IR Inten    --      2.4313                 2.3748                95.1300

 - Thermochemistry -
 -------------------
 Temperature   298.150 Kelvin.  Pressure   1.00000 Atm.
 Atom     1 has atomic number  6 and mass  12.00000

 Molecular mass:   133.05276 amu.
 Principal axes and moments of inertia in atomic units:
                           1         2         3
     Eigenvalues --   837.004291328.053022062.36484
           X            0.92277  -0.32914  -0.20043
           Y            0.28438   0.23063   0.93056
           Z            0.26006   0.91569  -0.30641
 This molecule is an asymmetric top.
 Rotational symmetry number  1.
 Warning -- assumption of classical behavior for rotation
           may cause significant error
 Rotational temperatures (Kelvin)      0.10348     0.06522     0.04200
 Rotational constants (GHZ):           2.15619     1.35894     0.87508
    1 imaginary frequencies ignored.
 Zero-point vibrational energy     341309.0 (Joules/Mol)
                                   81.57481 (Kcal/Mol)
 Warning -- explicit consideration of  10 degrees of freedom as
           vibrations may cause significant error
 Vibrational temperatures:    160.82   197.17   388.94   415.70   479.14
          (Kelvin)            662.70   735.43   803.97   824.30   879.15
                              900.15   974.56  1018.07  1066.06  1104.62
                             1159.31  1221.96  1240.23  1289.16  1398.82
                             1423.91  1433.00  1499.35  1577.72  1621.23
                             1645.40  1733.94  1795.23  1847.59  1997.91
                             2025.64  2066.64  2101.42  2216.44  2276.23
                             2305.17  2779.23  4510.28  4564.33  4569.73
                             4601.09  4669.12  4698.75  5220.49

 Zero-point correction=                           0.129998 (Hartree/Particle)
 Thermal correction to Energy=                    0.137587
 Thermal correction to Enthalpy=                  0.138531
 Thermal correction to Gibbs Free Energy=         0.097671
 Sum of electronic and zero-point Energies=           -439.013580
 Sum of electronic and thermal Energies=              -439.005991
 Sum of electronic and thermal Enthalpies=            -439.005047
 Sum of electronic and thermal Free Energies=         -439.045907

                     E (Thermal)             CV                S
                      KCal/Mol        Cal/Mol-Kelvin    Cal/Mol-Kelvin
 Total                   86.337             30.441             85.998
 Electronic               0.000              0.000              0.000
 Translational            0.889              2.981             40.569
 Rotational               0.889              2.981             29.218
 Vibrational             84.560             24.480             16.211
 Vibration     1          0.607              1.940              3.238
 Vibration     2          0.614              1.916              2.845
 Vibration     3          0.674              1.728              1.594
 Vibration     4          0.685              1.694              1.480
 Vibration     5          0.715              1.610              1.245
 Vibration     6          0.818              1.337              0.764
 Vibration     7          0.866              1.225              0.631
 Vibration     8          0.914              1.120              0.526
 Vibration     9          0.929              1.090              0.499
 Vibration    10          0.970              1.008              0.431

 Optimization completed.
    -- Stationary point found.
 Normal termination of Gaussian 16 at Fri Jun 10 12:31:27 2022.
