 Gaussian 16, Revision A.03,
 Gaussian 16:  ES64L-G16RevA.03 25-Dec-2016

 ----------------------------------------------------------------------
 # Opt=(Z-matrix, MaxStep=10) B3LYP/Def2TZVP Field=read NoSymm freq=nor
 aman pop=none
 ----------------------------------------------------------------------

 ------------------
 int_zmat_initalOpt
 ------------------
 Symbolic Z-matrix:
 Charge =  0 Multiplicity = 1

 SCF Done:  E(RB3LYP) =  -312.116760800     A.U. after   13 cycles
 SCF Done:  E(RB3LYP) =  -312.116771621     A.U. after    8 cycles
 SCF Done:  E(RB3LYP) =  -312.116773017     A.U. after    7 cycles
 Optimization completed.
    -- Stationary point found.
 Normal termination of Gaussian 16 at Fri Jun 10 03:01:57 2022.

 --------------------------------------------------------------------
 #N Geom=AllCheck Guess=TCheck SCRF=Check GenChk RB3LYP/def2TZVP Freq
 --------------------------------------------------------------------

 Structure from the checkpoint file:  "checkpoint.chk"
 ------------------
 int_zmat_initalOpt
 ------------------
 Charge =  0 Multiplicity = 1

                          Input orientation:
 ---------------------------------------------------------------------
 Center     Atomic      Atomic             Coordinates (Angstroms)
 Number     Number       Type             X           Y           Z
 ---------------------------------------------------------------------
      1          6           0        0.000000    0.000000    0.000000
      2          6           0        0.000000    0.000000    1.546953
      3          6           0        1.544336    0.000000    0.030253
      4          1           0       -0.394580    0.936593   -0.393907
      5          1           0       -0.489878   -0.830059   -0.510656
      6          6           0        1.467418    0.500402    1.533565
      7          6           0        2.351163    0.748424   -0.975636
      8          1           0       -0.066740   -1.008942    1.956125
      9          1           0       -0.740841    0.620676    2.047150
     10          1           0        1.905615   -1.033961    0.060176
     11          6           0        1.883848    1.383490   -2.044070
     12          6           0        1.700573    1.967383    1.722655
     13          1           0        3.425038    0.752241   -0.799057
     14          1           0        2.146314   -0.042535    2.197391
     15          6           0        0.834278    2.875429    2.154758
     16          1           0        2.546261    1.899395   -2.727358
     17          1           0        0.825553    1.420117   -2.273095
     18          1           0        2.709424    2.296405    1.485939
     19          1           0       -0.186986    2.630497    2.418413
     20          1           0        1.124523    3.911671    2.270002
 ---------------------------------------------------------------------

 SCF Done:  E(RB3LYP) =  -312.116773017     A.U. after    1 cycles

 Isotropic polarizability for W=    0.000000       92.25 Bohr**3.
 End of Minotr F.D. properties file   721 does not exist.

                      1                      2                      3
                      A                      A                      A
 Frequencies --     62.4274                93.8667               111.2682
 Red. masses --      2.9101                 2.1748                 2.3481
 Frc consts  --      0.0067                 0.0113                 0.0171
 IR Inten    --      0.0392                 0.0420                 0.0355

                      4                      5                      6
                      A                      A                      A
 Frequencies --    206.0688               250.4520               304.6856
 Red. masses --      2.1336                 2.4396                 2.4182
 Frc consts  --      0.0534                 0.0902                 0.1323
 IR Inten    --      0.0601                 0.5089                 0.3223

                      7                      8                      9
                      A                      A                      A
 Frequencies --    397.2556               493.6603               532.6603
 Red. masses --      2.0123                 2.1579                 2.1291
 Frc consts  --      0.1871                 0.3098                 0.3559
 IR Inten    --      3.0128                 2.4575                 0.9606

                     10                     11                     12
                      A                      A                      A
 Frequencies --    602.0306               642.3523               735.0903
 Red. masses --      1.9699                 2.0226                 1.5119
 Frc consts  --      0.4207                 0.4917                 0.4814
 IR Inten    --      3.2410                 5.2352                 2.4865

                     13                     14                     15
                      A                      A                      A
 Frequencies --    770.2196               814.1128               910.5664
 Red. masses --      1.8055                 2.2058                 2.1740
 Frc consts  --      0.6311                 0.8614                 1.0620
 IR Inten    --      4.5359                 2.9768                 4.8716

                     16                     17                     18
                      A                      A                      A
 Frequencies --    936.8561               945.5462               947.5698
 Red. masses --      2.6494                 2.1898                 1.3725
 Frc consts  --      1.3701                 1.1535                 0.7261
 IR Inten    --      1.7517                10.1340                40.2576

                     19                     20                     21
                      A                      A                      A
 Frequencies --    955.2119               979.2396              1026.1318
 Red. masses --      1.4093                 1.6935                 1.2351
 Frc consts  --      0.7576                 0.9568                 0.7662
 IR Inten    --     34.6998                 0.3651                 0.9645

                     22                     23                     24
                      A                      A                      A
 Frequencies --   1031.1528              1037.1457              1062.4264
 Red. masses --      1.1413                 1.1257                 1.8537
 Frc consts  --      0.7150                 0.7134                 1.2328
 IR Inten    --     10.3518                 7.9050                 2.7152

                     25                     26                     27
                      A                      A                      A
 Frequencies --   1083.5495              1121.8338              1160.9849
 Red. masses --      1.7677                 1.5343                 1.8164
 Frc consts  --      1.2228                 1.1377                 1.4425
 IR Inten    --      9.0015                 5.5203                 0.4372

                     28                     29                     30
                      A                      A                      A
 Frequencies --   1205.3218              1225.9178              1256.5484
 Red. masses --      1.3429                 1.2819                 1.3578
 Frc consts  --      1.1495                 1.1351                 1.2631
 IR Inten    --      2.9874                 0.8142                 0.2341

                     31                     32                     33
                      A                      A                      A
 Frequencies --   1269.2947              1275.0086              1333.1251
 Red. masses --      1.3292                 1.4568                 1.2996
 Frc consts  --      1.2617                 1.3953                 1.3609
 IR Inten    --      2.9136                 0.0473                 0.5252

                     34                     35                     36
                      A                      A                      A
 Frequencies --   1341.5271              1359.7381              1379.4521
 Red. masses --      1.2886                 1.4384                 1.6606
 Frc consts  --      1.3663                 1.5669                 1.8618
 IR Inten    --      0.0690                 1.5165                 4.2348

                     37                     38                     39
                      A                      A                      A
 Frequencies --   1455.6770              1457.6519              1487.5680
 Red. masses --      1.1971                 1.2094                 1.0935
 Frc consts  --      1.4945                 1.5140                 1.4256
 IR Inten    --      2.4562                 5.2568                 2.5751

                     40                     41                     42
                      A                      A                      A
 Frequencies --   1506.7559              1701.9454              1704.9995
 Red. masses --      1.1261                 4.5505                 4.4931
 Frc consts  --      1.5064                 7.7661                 7.6956
 IR Inten    --      4.7163                18.3803                13.3697

                     43                     44                     45
                      A                      A                      A
 Frequencies --   3004.0097              3027.6667              3053.9589
 Red. masses --      1.0830                 1.0839                 1.0589
 Frc consts  --      5.7583                 5.8542                 5.8187
 IR Inten    --     17.5847                37.8311                42.8220

                     46                     47                     48
                      A                      A                      A
 Frequencies --   3062.2589              3098.9341              3113.2143
 Red. masses --      1.0648                 1.1037                 1.0850
 Frc consts  --      5.8828                 6.2448                 6.1960
 IR Inten    --     41.3457                19.8665                14.6499

                     49                     50                     51
                      A                      A                      A
 Frequencies --   3115.8497              3125.9830              3141.0546
 Red. masses --      1.1043                 1.0839                 1.0625
 Frc consts  --      6.3167                 6.2406                 6.1761
 IR Inten    --     34.4345                17.6316                 5.7892

                     52                     53                     54
                      A                      A                      A
 Frequencies --   3147.4373              3218.2850              3222.9719
 Red. masses --      1.0635                 1.1155                 1.1152
 Frc consts  --      6.2074                 6.8072                 6.8252
 IR Inten    --      5.6094                13.0973                10.9408

 - Thermochemistry -
 -------------------
 Temperature   298.150 Kelvin.  Pressure   1.00000 Atm.
 Atom     1 has atomic number  6 and mass  12.00000

 Molecular mass:   108.09390 amu.
 Principal axes and moments of inertia in atomic units:
                           1         2         3
     Eigenvalues --   645.312111064.212431370.67891
           X           -0.28002   0.51826   0.80808
           Y            0.23775   0.85297  -0.46466
           Z            0.93009  -0.06201   0.36206
 This molecule is an asymmetric top.
 Rotational symmetry number  1.
 Warning -- assumption of classical behavior for rotation
           may cause significant error
 Rotational temperatures (Kelvin)      0.13422     0.08139     0.06319
 Rotational constants (GHZ):           2.79670     1.69585     1.31668
 Zero-point vibrational energy     463591.9 (Joules/Mol)
                                  110.80113 (Kcal/Mol)
 Warning -- explicit consideration of  10 degrees of freedom as
           vibrations may cause significant error
 Vibrational temperatures:     89.82   135.05   160.09   296.49   360.34
          (Kelvin)            438.37   571.56   710.27   766.38   866.19
                              924.20  1057.63  1108.17  1171.33  1310.10
                             1347.93  1360.43  1363.34  1374.34  1408.91
                             1476.37  1483.60  1492.22  1528.59  1558.99
                             1614.07  1670.40  1734.19  1763.82  1807.89
                             1826.23  1834.45  1918.07  1930.16  1956.36
                             1984.72  2094.39  2097.24  2140.28  2167.89
                             2448.72  2453.11  4322.10  4356.14  4393.97
                             4405.91  4458.67  4479.22  4483.01  4497.59
                             4519.28  4528.46  4630.39  4637.14

 Zero-point correction=                           0.176573 (Hartree/Particle)
 Thermal correction to Energy=                    0.185026
 Thermal correction to Enthalpy=                  0.185971
 Thermal correction to Gibbs Free Energy=         0.143233
 Sum of electronic and zero-point Energies=           -311.940200
 Sum of electronic and thermal Energies=              -311.931747
 Sum of electronic and thermal Enthalpies=            -311.930802
 Sum of electronic and thermal Free Energies=         -311.973540

                     E (Thermal)             CV                S
                      KCal/Mol        Cal/Mol-Kelvin    Cal/Mol-Kelvin
 Total                  116.106             31.627             89.950
 Electronic               0.000              0.000              0.000
 Translational            0.889              2.981             39.950
 Rotational               0.889              2.981             28.333
 Vibrational            114.328             25.666             21.666
 Vibration     1          0.597              1.972              4.379
 Vibration     2          0.603              1.954              3.578
 Vibration     3          0.607              1.940              3.247
 Vibration     4          0.641              1.831              2.078
 Vibration     5          0.663              1.762              1.727
 Vibration     6          0.696              1.665              1.391
 Vibration     7          0.764              1.476              0.973
 Vibration     8          0.849              1.264              0.674
 Vibration     9          0.888              1.178              0.581
 Vibration    10          0.960              1.027              0.446

                       ! Non-Optimized Parameters !
 Normal termination of Gaussian 16 at Fri Jun 10 03:10:28 2022.
