 Gaussian 16, Revision A.03,
 Gaussian 16:  ES64L-G16RevA.03 25-Dec-2016

 --------------------------
 # sp B3LYP/Def2TZVP NoSymm
 --------------------------

 ---------------------------
 ts_initalOpt_zmat_AlignedSp
 ---------------------------
 Symbolic Z-matrix:
 Charge =  0 Multiplicity = 1

                          Input orientation:
 ---------------------------------------------------------------------
 Center     Atomic      Atomic             Coordinates (Angstroms)
 Number     Number       Type             X           Y           Z
 ---------------------------------------------------------------------
      1          6           0        0.000000    0.000000    0.000000
      2          6           0        0.000000    0.000000    1.539197
      3          6           0        1.489182    0.000000   -0.323395
      4          1           0       -0.487145   -0.882048   -0.419822
      5          1           0       -0.505159    0.870093   -0.423376
      6          6           0        1.489181   -0.000005    1.862593
      7          6           0        2.205474    1.136833   -0.685599
      8          1           0       -0.487149   -0.882047    1.959017
      9          1           0       -0.505157    0.870094    1.962573
     10          1           0        1.929657   -0.959348   -0.569012
     11          6           0        1.796115    2.430259   -0.451165
     12          6           0        2.205474    1.136824    2.224802
     13          1           0        1.929655   -0.959354    2.108205
     14          1           0        3.247254    0.984981   -0.954195
     15          6           0        1.796117    2.430253    1.990378
     16          1           0        3.247254    0.984969    2.493398
     17          1           0        0.749869    2.677350   -0.347891
     18          1           0        2.450083    3.258453   -0.688400
     19          1           0        0.749872    2.677346    1.887105
     20          1           0        2.450086    3.258444    2.227615
 ---------------------------------------------------------------------

 SCF Done:  E(RB3LYP) =  -312.079791127     A.U. after   13 cycles

 Alpha  occ. eigenvalues --  -10.18167 -10.18167 -10.17162 -10.17143 -10.17029
 Alpha  occ. eigenvalues --  -10.17028 -10.16205 -10.16203  -0.83629  -0.77663
 Alpha  occ. eigenvalues --   -0.75856  -0.67516  -0.66398  -0.60185  -0.54911
 Alpha  occ. eigenvalues --   -0.50575  -0.50224  -0.46844  -0.46297  -0.43209
 Alpha  occ. eigenvalues --   -0.40280  -0.40237  -0.37798  -0.37211  -0.36331
 Alpha  occ. eigenvalues --   -0.33362  -0.32190  -0.31997  -0.24083  -0.21179
 Alpha virt. eigenvalues --   -0.03807   0.00481   0.03418   0.04141   0.06652
 Alpha virt. eigenvalues --    0.06911   0.07926   0.09342   0.10097   0.10843
 Alpha virt. eigenvalues --    0.11357   0.13379   0.14249   0.14623   0.14867

 Mulliken charges:
               1
     1  C   -0.153312
     2  C   -0.153313
     3  C   -0.091499
     4  H    0.086918
     5  H    0.088972
     6  C   -0.091498
     7  C   -0.062590
     8  H    0.086917
     9  H    0.088973
    10  H    0.102516
    11  C   -0.290958
    12  C   -0.062590
    13  H    0.102516
    14  H    0.088253
    15  C   -0.290958
    16  H    0.088253
    17  H    0.115892
    18  H    0.115807
    19  H    0.115892
    20  H    0.115807
 Sum of Mulliken charges =  -0.00000

 Dipole moment (field-independent basis, Debye):
    X=             -0.1665    Y=             -0.4230    Z=              0.0000  Tot=              0.4546
 Quadrupole moment (field-independent basis, Debye-Ang):
   XX=            -49.1611   YY=            -48.4455   ZZ=            -56.1163
   XY=             -0.5759   XZ=             -0.1281   YZ=             -0.3255

 Normal termination of Gaussian 16 at Fri Jun 10 02:34:42 2022.
