 Gaussian 16, Revision A.03,
 Gaussian 16:  ES64L-G16RevA.03 25-Dec-2016

 ----------------------------------------------------------------------
 # Opt=(TS, CalcFC, noeigentest, Z-matrix, MaxStep=10) geom=allcheckpoi
 nt guess=read Field=read NoSymm B3LYP/Def2TZVP freq=noraman pop=none
 ----------------------------------------------------------------------

 Structure from the checkpoint file:  "checkpoint.chk"
 -----------------
 ts_zmat_initalOpt
 -----------------
 Charge =  0 Multiplicity = 1

 SCF Done:  E(RB3LYP) =  -312.086167456     A.U. after   10 cycles
 SCF Done:  E(RB3LYP) =  -312.086191689     A.U. after   11 cycles
 SCF Done:  E(RB3LYP) =  -312.086191923     A.U. after    8 cycles
 SCF Done:  E(RB3LYP) =  -312.086192003     A.U. after    8 cycles
 Optimization completed.
    -- Stationary point found.
 Normal termination of Gaussian 16 at Fri Jun 10 04:13:45 2022.

 --------------------------------------------------------------------
 #N Geom=AllCheck Guess=TCheck SCRF=Check GenChk RB3LYP/def2TZVP Freq
 --------------------------------------------------------------------

 Structure from the checkpoint file:  "checkpoint.chk"
 -----------------
 ts_zmat_initalOpt
 -----------------
 Charge =  0 Multiplicity = 1

                          Input orientation:
 ---------------------------------------------------------------------
 Center     Atomic      Atomic             Coordinates (Angstroms)
 Number     Number       Type             X           Y           Z
 ---------------------------------------------------------------------
      1          6           0        0.000000    0.000000    0.000000
      2          6           0        0.000000    0.000000    1.539419
      3          6           0        1.486314    0.000000   -0.334785
      4          1           0       -0.499806   -0.876031   -0.419471
      5          1           0       -0.500636    0.877657   -0.414309
      6          6           0        1.482323    0.119081    1.867688
      7          6           0        2.184962    1.123297   -0.765082
      8          1           0       -0.403301   -0.922932    1.955127
      9          1           0       -0.581118    0.816579    1.969903
     10          1           0        1.945038   -0.968215   -0.500714
     11          6           0        1.758888    2.428790   -0.617331
     12          6           0        2.132107    1.315712    2.148647
     13          1           0        1.981179   -0.791425    2.177383
     14          1           0        3.238796    0.971329   -0.990869
     15          6           0        1.642438    2.562365    1.838773
     16          1           0        3.169943    1.244263    2.459530
     17          1           0        0.710442    2.676547   -0.547848
     18          1           0        2.418117    3.247627   -0.877177
     19          1           0        0.583679    2.726090    1.700490
     20          1           0        2.228142    3.445194    2.056179
 ---------------------------------------------------------------------

 SCF Done:  E(RB3LYP) =  -312.086192003     A.U. after    1 cycles

 Isotropic polarizability for W=    0.000000      103.17 Bohr**3.
 End of Minotr F.D. properties file   721 does not exist.

 ******    1 imaginary frequencies (negative Signs) ******

                      1                      2                      3
                      A                      A                      A
 Frequencies --   -405.6706                58.4932               251.1726
 Red. masses --      7.8921                 2.0948                 4.4022
 Frc consts  --      0.7652                 0.0042                 0.1636
 IR Inten    --      2.4715                 0.0769                 3.0235

                      4                      5                      6
                      A                      A                      A
 Frequencies --    257.2252               282.1219               300.2565
 Red. masses --      2.6501                 3.0374                 3.1809
 Frc consts  --      0.1033                 0.1424                 0.1690
 IR Inten    --      1.8471                 0.7780                 1.6300

                      7                      8                      9
                      A                      A                      A
 Frequencies --    366.6811               418.1026               530.8156
 Red. masses --      2.3127                 2.2669                 2.2867
 Frc consts  --      0.1832                 0.2335                 0.3796
 IR Inten    --      1.9196                 2.5577                 2.7345

                     10                     11                     12
                      A                      A                      A
 Frequencies --    572.8041               653.0042               678.8322
 Red. masses --      2.0249                 2.5928                 1.3330
 Frc consts  --      0.3914                 0.6514                 0.3619
 IR Inten    --      0.4600                 3.6364                 0.5841

                     13                     14                     15
                      A                      A                      A
 Frequencies --    711.0889               757.0842               784.5843
 Red. masses --      1.3035                 1.1023                 1.3340
 Frc consts  --      0.3883                 0.3723                 0.4838
 IR Inten    --     22.6174                 7.4342                 3.7771

                     16                     17                     18
                      A                      A                      A
 Frequencies --    857.2616               877.8940               907.9997
 Red. masses --      1.3686                 1.2810                 2.3722
 Frc consts  --      0.5926                 0.5817                 1.1523
 IR Inten    --     18.9087                 3.2057                 0.0918

                     19                     20                     21
                      A                      A                      A
 Frequencies --    940.7164               952.1121               991.6119
 Red. masses --      1.4789                 1.5087                 1.4579
 Frc consts  --      0.7711                 0.8058                 0.8446
 IR Inten    --      1.0555                 9.0594                 4.5565

                     22                     23                     24
                      A                      A                      A
 Frequencies --    995.3465              1006.1963              1024.8945
 Red. masses --      1.5341                 1.6692                 1.3726
 Frc consts  --      0.8955                 0.9957                 0.8495
 IR Inten    --      2.3043                 3.7348                12.8802

                     25                     26                     27
                      A                      A                      A
 Frequencies --   1041.7196              1087.3733              1147.7902
 Red. masses --      1.4278                 1.9198                 1.3194
 Frc consts  --      0.9129                 1.3374                 1.0241
 IR Inten    --      3.3375                 6.1439                 0.6438

                     28                     29                     30
                      A                      A                      A
 Frequencies --   1184.9278              1221.7099              1262.9077
 Red. masses --      1.5842                 1.5232                 1.1461
 Frc consts  --      1.3105                 1.3395                 1.0770
 IR Inten    --      0.5826                 0.7527                 0.1603

                     31                     32                     33
                      A                      A                      A
 Frequencies --   1284.7430              1296.5165              1302.0811
 Red. masses --      1.4552                 1.4095                 1.3470
 Frc consts  --      1.4152                 1.3959                 1.3455
 IR Inten    --      1.5058                 1.0791                 1.3425

                     34                     35                     36
                      A                      A                      A
 Frequencies --   1330.3710              1425.6334              1434.2728
 Red. masses --      1.4004                 1.3269                 1.3101
 Frc consts  --      1.4603                 1.5889                 1.5879
 IR Inten    --      3.5244                 1.3189                 2.6804

                     37                     38                     39
                      A                      A                      A
 Frequencies --   1487.9884              1497.9069              1505.2804
 Red. masses --      1.1826                 2.1799                 1.4842
 Frc consts  --      1.5427                 2.8818                 1.9815
 IR Inten    --      2.8644                 4.0719                 0.6028

                     40                     41                     42
                      A                      A                      A
 Frequencies --   1510.7685              1557.0311              1609.3909
 Red. masses --      1.1749                 1.9478                 3.7355
 Frc consts  --      1.5799                 2.7823                 5.7007
 IR Inten    --     15.6590                 3.8646                11.6241

                     43                     44                     45
                      A                      A                      A
 Frequencies --   3033.3011              3060.8240              3064.5415
 Red. masses --      1.0584                 1.0706                 1.0955
 Frc consts  --      5.7375                 5.9093                 6.0614
 IR Inten    --     54.1269                25.0986                13.0177

                     46                     47                     48
                      A                      A                      A
 Frequencies --   3098.8372              3103.9758              3138.7139
 Red. masses --      1.0844                 1.1046                 1.0855
 Frc consts  --      6.1353                 6.2702                 6.3004
 IR Inten    --     28.0668                11.7798                 9.3014

                     49                     50                     51
                      A                      A                      A
 Frequencies --   3147.1252              3156.6715              3159.4909
 Red. masses --      1.0610                 1.0882                 1.0589
 Frc consts  --      6.1914                 6.3888                 6.2277
 IR Inten    --     18.7395                20.4036                 8.8869

                     52                     53                     54
                      A                      A                      A
 Frequencies --   3173.3623              3228.3955              3242.8374
 Red. masses --      1.0909                 1.1142                 1.1143
 Frc consts  --      6.4728                 6.8422                 6.9039
 IR Inten    --      8.5516                 7.5465                16.9945

 - Thermochemistry -
 -------------------
 Temperature   298.150 Kelvin.  Pressure   1.00000 Atm.
 Atom     1 has atomic number  6 and mass  12.00000

 Molecular mass:   108.09390 amu.
 Principal axes and moments of inertia in atomic units:
                           1         2         3
     Eigenvalues --   727.16710 784.220161146.21062
           X            0.54744   0.09398   0.83155
           Y            0.80081   0.22962  -0.55315
           Z           -0.24293   0.96873   0.05044
 This molecule is an asymmetric top.
 Rotational symmetry number  1.
 Warning -- assumption of classical behavior for rotation
           may cause significant error
 Rotational temperatures (Kelvin)      0.11911     0.11045     0.07557
 Rotational constants (GHZ):           2.48188     2.30132     1.57453
    1 imaginary frequencies ignored.
 Zero-point vibrational energy     460399.5 (Joules/Mol)
                                  110.03813 (Kcal/Mol)
 Warning -- explicit consideration of   9 degrees of freedom as
           vibrations may cause significant error
 Vibrational temperatures:     84.16   361.38   370.09   405.91   432.00
          (Kelvin)            527.57   601.56   763.73   824.14   939.53
                              976.69  1023.10  1089.28  1128.84  1233.41
                             1263.09  1306.41  1353.48  1369.88  1426.71
                             1432.08  1447.69  1474.59  1498.80  1564.49
                             1651.41  1704.85  1757.77  1817.04  1848.46
                             1865.40  1873.40  1914.11  2051.17  2063.60
                             2140.88  2155.15  2165.76  2173.66  2240.22
                             2315.55  4364.24  4403.84  4409.19  4458.54
                             4465.93  4515.91  4528.01  4541.75  4545.80
                             4565.76  4644.94  4665.72

 Zero-point correction=                           0.175357 (Hartree/Particle)
 Thermal correction to Energy=                    0.183000
 Thermal correction to Enthalpy=                  0.183944
 Thermal correction to Gibbs Free Energy=         0.143621
 Sum of electronic and zero-point Energies=           -311.910835
 Sum of electronic and thermal Energies=              -311.903192
 Sum of electronic and thermal Enthalpies=            -311.902248
 Sum of electronic and thermal Free Energies=         -311.942571

                     E (Thermal)             CV                S
                      KCal/Mol        Cal/Mol-Kelvin    Cal/Mol-Kelvin
 Total                  114.834             30.652             84.868
 Electronic               0.000              0.000              0.000
 Translational            0.889              2.981             39.950
 Rotational               0.889              2.981             27.971
 Vibrational            113.057             24.690             16.947
 Vibration     1          0.596              1.974              4.507
 Vibration     2          0.663              1.761              1.722
 Vibration     3          0.667              1.751              1.681
 Vibration     4          0.681              1.707              1.521
 Vibration     5          0.693              1.673              1.415
 Vibration     6          0.740              1.541              1.094
 Vibration     7          0.781              1.431              0.898
 Vibration     8          0.886              1.182              0.585
 Vibration     9          0.929              1.090              0.499

 Optimization completed.
    -- Stationary point found.
 Normal termination of Gaussian 16 at Fri Jun 10 04:23:03 2022.
