 Gaussian 16, Revision A.03,
 Gaussian 16:  ES64L-G16RevA.03 25-Dec-2016

 ----------------------------------------------------------------------
 # Opt=(Z-matrix, MaxStep=10) B3LYP/Def2TZVP geom=allcheckpoint guess=r
 ead Field=read NoSymm
 ----------------------------------------------------------------------

 Structure from the checkpoint file:  "checkpoint.chk"
 ------------------
 int_zmat_initalOpt
 ------------------
 Charge =  0 Multiplicity = 1

 SCF Done:  E(RB3LYP) =  -269.425827464     A.U. after   11 cycles
 SCF Done:  E(RB3LYP) =  -269.425845098     A.U. after    9 cycles
 SCF Done:  E(RB3LYP) =  -269.425853816     A.U. after    9 cycles
 SCF Done:  E(RB3LYP) =  -269.425854339     A.U. after    7 cycles
 Optimization completed.
    -- Stationary point found.

                         Z-Matrix orientation:
 ---------------------------------------------------------------------
 Center     Atomic      Atomic             Coordinates (Angstroms)
 Number     Number       Type             X           Y           Z
 ---------------------------------------------------------------------
      1          1           0        0.000000    0.000000    0.000000
      2          6           0        0.000000    0.000000    1.080271
      3          6           0        1.166339    0.000000    1.741394
      4          6           0       -1.214056    0.280317    1.832792
      5          1           0        2.137507    0.023624    1.263028
      6          8           0        1.266244    0.088582    3.089029
      7          6           0       -1.179999    0.227302    3.166593
      8          1           0       -2.095598    0.622938    1.306539
      9          6           0        0.073790   -0.257332    3.831436
     10          1           0       -2.016384    0.529797    3.782375
     11          1           0        0.210024    0.181702    4.818513
     12          1           0        0.065837   -1.356800    3.941865
 ---------------------------------------------------------------------

 Alpha  occ. eigenvalues --  -19.16371 -10.23409 -10.23263 -10.16910 -10.16655
 Alpha  occ. eigenvalues --  -10.16419  -1.07176  -0.80870  -0.77470  -0.66323
 Alpha  occ. eigenvalues --   -0.62404  -0.53167  -0.50839  -0.48396  -0.46203
 Alpha  occ. eigenvalues --   -0.43391  -0.40659  -0.37504  -0.35978  -0.32932
 Alpha  occ. eigenvalues --   -0.29893  -0.20818
 Alpha virt. eigenvalues --   -0.02945   0.03944   0.05263   0.07746   0.07967
 Alpha virt. eigenvalues --    0.09471   0.09880   0.11896   0.14271   0.16468
 Alpha virt. eigenvalues --    0.17618   0.19180   0.21299   0.22365   0.23563

 Mulliken charges:
               1
     1  H    0.115553
     2  C   -0.170839
     3  C    0.020120
     4  C   -0.105912
     5  H    0.092628
     6  O   -0.278215
     7  C   -0.178662
     8  H    0.154195
     9  C    0.048947
    10  H    0.150910
    11  H    0.126102
    12  H    0.025171
 Sum of Mulliken charges =  -0.00000

 Dipole moment (field-independent basis, Debye):
    X=             -1.6123    Y=              0.8958    Z=              0.0382  Tot=              1.8448
 Quadrupole moment (field-independent basis, Debye-Ang):
   XX=            -34.8145   YY=            -38.3191   ZZ=            -31.6244
   XY=             -1.3211   XZ=             -5.8296   YZ=              1.6275

 Normal termination of Gaussian 16 at Mon Mar 21 08:17:09 2022.
