 Gaussian 16, Revision A.03,
 Gaussian 16:  ES64L-G16RevA.03 25-Dec-2016

 ----------------------------------------------------------------------
 # Opt=(Z-matrix, MaxStep=10) B3LYP/Def2TZVP geom=allcheckpoint guess=r
 ead Field=read NoSymm freq=noraman pop=none
 ----------------------------------------------------------------------

 Structure from the checkpoint file:  "checkpoint.chk"
 ------------------
 int_zmat_initalOpt
 ------------------
 Charge =  0 Multiplicity = 1

 SCF Done:  E(RB3LYP) =  -312.118482699     A.U. after   10 cycles
 SCF Done:  E(RB3LYP) =  -312.118493491     A.U. after    8 cycles
 SCF Done:  E(RB3LYP) =  -312.118495228     A.U. after    7 cycles
 Optimization completed.
    -- Stationary point found.
 Normal termination of Gaussian 16 at Fri Jun 10 03:44:04 2022.

 --------------------------------------------------------------------
 #N Geom=AllCheck Guess=TCheck SCRF=Check GenChk RB3LYP/def2TZVP Freq
 --------------------------------------------------------------------

 Structure from the checkpoint file:  "checkpoint.chk"
 ------------------
 int_zmat_initalOpt
 ------------------
 Charge =  0 Multiplicity = 1

                          Input orientation:
 ---------------------------------------------------------------------
 Center     Atomic      Atomic             Coordinates (Angstroms)
 Number     Number       Type             X           Y           Z
 ---------------------------------------------------------------------
      1          6           0        0.000000    0.000000    0.000000
      2          6           0        0.000000    0.000000    1.546905
      3          6           0        1.544213    0.000000    0.030779
      4          1           0       -0.392181    0.938602   -0.391148
      5          1           0       -0.492963   -0.828659   -0.514063
      6          6           0        1.463744    0.512951    1.530190
      7          6           0        2.350920    0.740890   -0.980513
      8          1           0       -0.057015   -1.009941    1.957375
      9          1           0       -0.743526    0.616222    2.047887
     10          1           0        1.906098   -1.034603    0.071481
     11          6           0        1.883632    1.370112   -2.052692
     12          6           0        1.682143    1.984730    1.707879
     13          1           0        3.423090    0.758797   -0.795929
     14          1           0        2.146036   -0.019556    2.198569
     15          6           0        0.807014    2.884926    2.136967
     16          1           0        2.543888    1.899392   -2.727691
     17          1           0        0.824475    1.409064   -2.278667
     18          1           0        2.689231    2.320968    1.475643
     19          1           0       -0.211248    2.632401    2.405829
     20          1           0        1.088240    3.923091    2.254114
 ---------------------------------------------------------------------

 SCF Done:  E(RB3LYP) =  -312.118495228     A.U. after    1 cycles

 Isotropic polarizability for W=    0.000000       92.48 Bohr**3.
 End of Minotr F.D. properties file   721 does not exist.

                      1                      2                      3
                      A                      A                      A
 Frequencies --     62.1981                92.7108               114.0568
 Red. masses --      2.9137                 2.1688                 2.3525
 Frc consts  --      0.0066                 0.0110                 0.0180
 IR Inten    --      0.1954                 0.0853                 0.0507

                      4                      5                      6
                      A                      A                      A
 Frequencies --    205.8679               250.1841               305.6056
 Red. masses --      2.1486                 2.4496                 2.4153
 Frc consts  --      0.0537                 0.0903                 0.1329
 IR Inten    --      0.0348                 0.4917                 0.1524

                      7                      8                      9
                      A                      A                      A
 Frequencies --    398.0740               493.7328               533.2770
 Red. masses --      2.0256                 2.1457                 2.1217
 Frc consts  --      0.1891                 0.3082                 0.3555
 IR Inten    --      3.1004                 3.2429                 0.9521

                     10                     11                     12
                      A                      A                      A
 Frequencies --    602.2585               641.8679               733.5420
 Red. masses --      1.9763                 2.0221                 1.5114
 Frc consts  --      0.4223                 0.4908                 0.4792
 IR Inten    --      3.3062                 5.5997                 2.3832

                     13                     14                     15
                      A                      A                      A
 Frequencies --    770.6205               813.7797               910.8507
 Red. masses --      1.8077                 2.1994                 2.1793
 Frc consts  --      0.6325                 0.8582                 1.0653
 IR Inten    --      3.9408                 3.1542                 4.9739

                     16                     17                     18
                      A                      A                      A
 Frequencies --    934.5171               944.0814               945.4425
 Red. masses --      2.6028                 1.5798                 1.9257
 Frc consts  --      1.3392                 0.8296                 1.0142
 IR Inten    --      1.2068                33.3612                15.2299

                     19                     20                     21
                      A                      A                      A
 Frequencies --    969.7107               979.1856              1024.1038
 Red. masses --      1.3275                 1.6988                 1.1939
 Frc consts  --      0.7355                 0.9597                 0.7378
 IR Inten    --     41.7412                 0.2048                 1.9664

                     22                     23                     24
                      A                      A                      A
 Frequencies --   1032.1876              1037.3548              1060.2735
 Red. masses --      1.1521                 1.1498                 1.8647
 Frc consts  --      0.7232                 0.7290                 1.2351
 IR Inten    --      8.1409                 7.3042                 3.4282

                     25                     26                     27
                      A                      A                      A
 Frequencies --   1083.8764              1120.3517              1159.6120
 Red. masses --      1.7861                 1.5431                 1.8066
 Frc consts  --      1.2363                 1.1412                 1.4313
 IR Inten    --      7.6382                 5.2316                 0.5256

                     28                     29                     30
                      A                      A                      A
 Frequencies --   1204.1859              1222.2413              1256.5464
 Red. masses --      1.3437                 1.2810                 1.3596
 Frc consts  --      1.1480                 1.1275                 1.2648
 IR Inten    --      3.3188                 1.2023                 0.5064

                     31                     32                     33
                      A                      A                      A
 Frequencies --   1266.8184              1271.8148              1333.0520
 Red. masses --      1.3385                 1.4539                 1.3005
 Frc consts  --      1.2656                 1.3856                 1.3616
 IR Inten    --      2.8861                 0.0202                 0.3349

                     34                     35                     36
                      A                      A                      A
 Frequencies --   1342.0559              1358.5483              1378.2842
 Red. masses --      1.2931                 1.4214                 1.6653
 Frc consts  --      1.3722                 1.5457                 1.8639
 IR Inten    --      0.2021                 2.4920                 4.7005

                     37                     38                     39
                      A                      A                      A
 Frequencies --   1457.1628              1457.9400              1485.2663
 Red. masses --      1.2077                 1.1953                 1.0959
 Frc consts  --      1.5109                 1.4969                 1.4244
 IR Inten    --      1.7582                 7.4069                 2.1346

                     40                     41                     42
                      A                      A                      A
 Frequencies --   1505.4516              1701.2261              1706.8363
 Red. masses --      1.1278                 4.5468                 4.4798
 Frc consts  --      1.5060                 7.7532                 7.6894
 IR Inten    --      4.8600                18.7290                 8.8146

                     43                     44                     45
                      A                      A                      A
 Frequencies --   2987.8457              3028.2935              3034.4304
 Red. masses --      1.0826                 1.0834                 1.0648
 Frc consts  --      5.6944                 5.8540                 5.7764
 IR Inten    --     32.1973                33.5791                69.3679

                     46                     47                     48
                      A                      A                      A
 Frequencies --   3053.9652              3095.6877              3116.4379
 Red. masses --      1.0680                 1.0980                 1.0985
 Frc consts  --      5.8687                 6.1997                 6.2857
 IR Inten    --     61.6453                22.5853                34.0009

                     49                     50                     51
                      A                      A                      A
 Frequencies --   3117.3294              3132.4278              3139.0358
 Red. masses --      1.0865                 1.0845                 1.0630
 Frc consts  --      6.2208                 6.2697                 6.1713
 IR Inten    --      6.8420                12.3846                 5.8264

                     52                     53                     54
                      A                      A                      A
 Frequencies --   3149.2939              3217.2801              3227.7934
 Red. masses --      1.0640                 1.1152                 1.1150
 Frc consts  --      6.2176                 6.8013                 6.8447
 IR Inten    --      5.0814                12.7514                 5.9740

 - Thermochemistry -
 -------------------
 Temperature   298.150 Kelvin.  Pressure   1.00000 Atm.
 Atom     1 has atomic number  6 and mass  12.00000

 Molecular mass:   108.09390 amu.
 Principal axes and moments of inertia in atomic units:
                           1         2         3
     Eigenvalues --   644.037741065.956741370.79946
           X           -0.28530   0.51170   0.81042
           Y            0.24246   0.85659  -0.45549
           Z            0.92726  -0.06654   0.36845
 This molecule is an asymmetric top.
 Rotational symmetry number  1.
 Warning -- assumption of classical behavior for rotation
           may cause significant error
 Rotational temperatures (Kelvin)      0.13449     0.08125     0.06318
 Rotational constants (GHZ):           2.80223     1.69307     1.31656
 Zero-point vibrational energy     463353.0 (Joules/Mol)
                                  110.74403 (Kcal/Mol)
 Warning -- explicit consideration of  10 degrees of freedom as
           vibrations may cause significant error
 Vibrational temperatures:     89.49   133.39   164.10   296.20   359.96
          (Kelvin)            439.70   572.74   710.37   767.27   866.52
                              923.50  1055.40  1108.75  1170.85  1310.51
                             1344.56  1358.32  1360.28  1395.20  1408.83
                             1473.46  1485.09  1492.52  1525.50  1559.46
                             1611.94  1668.42  1732.55  1758.53  1807.89
                             1822.67  1829.86  1917.96  1930.92  1954.65
                             1983.04  2096.53  2097.65  2136.97  2166.01
                             2447.68  2455.76  4298.84  4357.04  4365.87
                             4393.97  4454.00  4483.86  4485.14  4506.86
                             4516.37  4531.13  4628.95  4644.07

 Zero-point correction=                           0.176482 (Hartree/Particle)
 Thermal correction to Energy=                    0.184932
 Thermal correction to Enthalpy=                  0.185876
 Thermal correction to Gibbs Free Energy=         0.143148
 Sum of electronic and zero-point Energies=           -311.942013
 Sum of electronic and thermal Energies=              -311.933564
 Sum of electronic and thermal Enthalpies=            -311.932619
 Sum of electronic and thermal Free Energies=         -311.975347

                     E (Thermal)             CV                S
                      KCal/Mol        Cal/Mol-Kelvin    Cal/Mol-Kelvin
 Total                  116.046             31.626             89.929
 Electronic               0.000              0.000              0.000
 Translational            0.889              2.981             39.950
 Rotational               0.889              2.981             28.333
 Vibrational            114.269             25.665             21.645
 Vibration     1          0.597              1.972              4.386
 Vibration     2          0.602              1.954              3.602
 Vibration     3          0.607              1.938              3.199
 Vibration     4          0.640              1.832              2.080
 Vibration     5          0.663              1.762              1.729
 Vibration     6          0.696              1.663              1.386
 Vibration     7          0.764              1.474              0.970
 Vibration     8          0.849              1.264              0.674
 Vibration     9          0.888              1.176              0.580
 Vibration    10          0.961              1.027              0.446

                       ! Non-Optimized Parameters !
 Normal termination of Gaussian 16 at Fri Jun 10 04:01:50 2022.
