 Gaussian 16, Revision A.03,
 Gaussian 16:  ES64L-G16RevA.03 25-Dec-2016

 ----------------------------------------------------------------------
 # Opt=(Z-matrix, MaxStep=10) B3LYP/Def2TZVP geom=allcheckpoint guess=r
 ead Field=read NoSymm freq=noraman pop=none
 ----------------------------------------------------------------------

 Structure from the checkpoint file:  "checkpoint.chk"
 ------------------
 int_zmat_initalOpt
 ------------------
 Charge =  0 Multiplicity = 1

 SCF Done:  E(RB3LYP) =  -387.394538570     A.U. after   10 cycles
 SCF Done:  E(RB3LYP) =  -387.394554844     A.U. after    8 cycles
 SCF Done:  E(RB3LYP) =  -387.394559702     A.U. after    8 cycles
 SCF Done:  E(RB3LYP) =  -387.394560666     A.U. after    7 cycles
 SCF Done:  E(RB3LYP) =  -387.394561458     A.U. after    8 cycles
 SCF Done:  E(RB3LYP) =  -387.394562826     A.U. after    8 cycles
 SCF Done:  E(RB3LYP) =  -387.394563937     A.U. after    8 cycles
 SCF Done:  E(RB3LYP) =  -387.394564510     A.U. after    8 cycles
 SCF Done:  E(RB3LYP) =  -387.394564718     A.U. after    7 cycles
 SCF Done:  E(RB3LYP) =  -387.394564744     A.U. after    8 cycles
 SCF Done:  E(RB3LYP) =  -387.394564815     A.U. after    7 cycles
 Optimization completed.
    -- Stationary point found.

 1\1\GINC-BHC0034\FOpt\RB3LYP\def2TZVP\C8H12O1\DHANAWAY\10-Jun-2022\1\\
 # Opt=(Z-matrix, MaxStep=10) B3LYP/Def2TZVP geom=allcheckpoint guess=r
 ead Field=read NoSymm freq=noraman pop=none\\int_zmat_initalOpt\\0,1\H
 \C,1,R2\C,2,R3,1,A3\O,2,R4,1,A4,3,D4,0\H,2,R5,1,A5,3,D5,0\C,4,R6,2,A6,
 1,D6,0\C,3,R7,2,A7,1,D7,0\C,3,R8,2,A8,7,D8,0\H,6,R9,4,A9,2,D9,0\H,6,R1
 0,4,A10,9,D10,0\C,7,R11,3,A11,2,D11,0\H,7,R12,3,A12,11,D12,0\H,8,R13,3
 ,A13,2,D13,0\C,8,R14,3,A14,13,D14,0\C,11,R15,7,A15,3,D15,0\H,11,R16,7,
 A16,15,D16,0\H,14,R17,8,A17,3,D17,0\H,14,R18,8,A18,17,D18,0\H,14,R19,8

 Normal termination of Gaussian 16 at Fri Jun 10 23:48:32 2022.

 --------------------------------------------------------------------
 #N Geom=AllCheck Guess=TCheck SCRF=Check GenChk RB3LYP/def2TZVP Freq
 --------------------------------------------------------------------

 Structure from the checkpoint file:  "checkpoint.chk"
 ------------------
 int_zmat_initalOpt
 ------------------
 Charge =  0 Multiplicity = 1

                          Input orientation:
 ---------------------------------------------------------------------
 Center     Atomic      Atomic             Coordinates (Angstroms)
 Number     Number       Type             X           Y           Z
 ---------------------------------------------------------------------
      1          1           0        0.000000    0.000000    0.000000
      2          6           0        0.000000    0.000000    1.099083
      3          6           0        1.406598    0.000000    1.661444
      4          8           0       -0.627530    1.192961    1.578377
      5          1           0       -0.599308   -0.848956    1.437006
      6          6           0        0.399327    2.116781    1.926762
      7          6           0        1.524217    1.260829    2.512111
      8          6           0        2.342519   -0.916792    1.446106
      9          1           0       -0.022135    2.833194    2.631797
     10          1           0        0.748813    2.656915    1.035116
     11          6           0        2.887880    1.877135    2.591091
     12          1           0        1.225441    0.989278    3.534804
     13          1           0        3.315626   -0.787522    1.909067
     14          6           0        2.182311   -2.159888    0.625189
     15          6           0        3.201977    3.140055    2.328087
     16          1           0        3.674769    1.211587    2.932227
     17          1           0        1.207678   -2.219899    0.139484
     18          1           0        2.301057   -3.052160    1.246791
     19          1           0        2.952660   -2.218721   -0.149183
     20          1           0        2.468604    3.869532    2.005388
     21          1           0        4.218291    3.495206    2.440148
 ---------------------------------------------------------------------

 SCF Done:  E(RB3LYP) =  -387.394564815     A.U. after    1 cycles

 Isotropic polarizability for W=    0.000000       97.40 Bohr**3.
 End of Minotr F.D. properties file   721 does not exist.

                      1                      2                      3
                      A                      A                      A
 Frequencies --     49.9425                77.8876               123.9178
 Red. masses --      2.3893                 2.5095                 1.0289
 Frc consts  --      0.0035                 0.0090                 0.0093
 IR Inten    --      0.3413                 0.1674                 0.2753

                      4                      5                      6
                      A                      A                      A
 Frequencies --    177.5261               185.0961               203.1331
 Red. masses --      2.4800                 3.0480                 2.4814
 Frc consts  --      0.0460                 0.0615                 0.0603
 IR Inten    --      0.3082                 0.2014                 8.1053

                      7                      8                      9
                      A                      A                      A
 Frequencies --    240.1218               322.5552               432.3142
 Red. masses --      2.9929                 2.5322                 2.7230
 Frc consts  --      0.1017                 0.1552                 0.2998
 IR Inten    --      0.6100                 0.4300                 0.9491

                     10                     11                     12
                      A                      A                      A
 Frequencies --    488.2443               530.0065               572.9657
 Red. masses --      2.6552                 2.3665                 2.8626
 Frc consts  --      0.3729                 0.3917                 0.5537
 IR Inten    --      3.4689                 3.3146                 2.2559

                     13                     14                     15
                      A                      A                      A
 Frequencies --    644.5725               696.8256               793.3092
 Red. masses --      4.8601                 1.9823                 2.2428
 Frc consts  --      1.1897                 0.5671                 0.8316
 IR Inten    --      1.6357                12.3468                 6.3271

                     16                     17                     18
                      A                      A                      A
 Frequencies --    860.2885               942.8181               943.0862
 Red. masses --      1.2865                 2.2730                 1.7864
 Frc consts  --      0.5610                 1.1904                 0.9361
 IR Inten    --      7.1218                30.3695                50.0508

                     19                     20                     21
                      A                      A                      A
 Frequencies --    956.8420               988.2419              1008.4714
 Red. masses --      3.4202                 1.6598                 1.6680
 Frc consts  --      1.8449                 0.9551                 0.9995
 IR Inten    --      8.2054                14.7770                10.0721

                     22                     23                     24
                      A                      A                      A
 Frequencies --   1018.7084              1034.5885              1050.6518
 Red. masses --      1.5341                 1.3565                 1.4618
 Frc consts  --      0.9380                 0.8555                 0.9507
 IR Inten    --      6.4023                 1.7116                11.8052

                     25                     26                     27
                      A                      A                      A
 Frequencies --   1065.5605              1086.3581              1104.7937
 Red. masses --      1.5701                 5.1122                 3.0275
 Frc consts  --      1.0504                 3.5547                 2.1772
 IR Inten    --      1.0668                43.6517                44.4144

                     28                     29                     30
                      A                      A                      A
 Frequencies --   1166.6043              1191.8090              1222.2094
 Red. masses --      2.1061                 2.0091                 1.1821
 Frc consts  --      1.6888                 1.6814                 1.0404
 IR Inten    --      6.8402                 7.6448                 0.4453

                     31                     32                     33
                      A                      A                      A
 Frequencies --   1244.2887              1284.1762              1316.7812
 Red. masses --      1.3319                 1.2677                 1.3890
 Frc consts  --      1.2150                 1.2317                 1.4190
 IR Inten    --      1.5628                 4.0988                 0.1681

                     34                     35                     36
                      A                      A                      A
 Frequencies --   1336.1841              1353.1327              1386.0197
 Red. masses --      1.2412                 1.2455                 1.4209
 Frc consts  --      1.3057                 1.3436                 1.6083
 IR Inten    --      2.6238                 0.6748                 5.3064

                     37                     38                     39
                      A                      A                      A
 Frequencies --   1398.7222              1418.2516              1462.9687
 Red. masses --      1.5305                 1.2776                 1.2046
 Frc consts  --      1.7642                 1.5141                 1.5190
 IR Inten    --      3.7672                 0.8917                 1.6557

                     40                     41                     42
                      A                      A                      A
 Frequencies --   1482.8207              1492.4685              1504.7446
 Red. masses --      1.0434                 1.0613                 1.0823
 Frc consts  --      1.3516                 1.3929                 1.4438
 IR Inten    --      5.4056                11.9787                 0.0292

                     43                     44                     45
                      A                      A                      A
 Frequencies --   1520.4449              1703.7942              1751.3964
 Red. masses --      1.0944                 4.5459                 7.7298
 Frc consts  --      1.4906                 7.7751                13.9697
 IR Inten    --      1.1142                20.4626                 0.9300

                     46                     47                     48
                      A                      A                      A
 Frequencies --   2959.4434              2964.5568              2976.5925
 Red. masses --      1.0724                 1.0735                 1.0783
 Frc consts  --      5.5337                 5.5587                 5.6291
 IR Inten    --     42.8044                57.1792                40.1552

                     49                     50                     51
                      A                      A                      A
 Frequencies --   3021.6211              3049.7123              3062.3867
 Red. masses --      1.0373                 1.0897                 1.0992
 Frc consts  --      5.5801                 5.9715                 6.0736
 IR Inten    --     26.8349                25.0127                11.5094

                     52                     53                     54
                      A                      A                      A
 Frequencies --   3091.1353              3097.7214              3137.8841
 Red. masses --      1.0924                 1.0990                 1.0595
 Frc consts  --      6.1500                 6.2132                 6.1467
 IR Inten    --     34.7205                18.5400                11.6175

                     55                     56                     57
                      A                      A                      A
 Frequencies --   3144.4964              3151.2619              3217.1150
 Red. masses --      1.0889                 1.0888                 1.1149
 Frc consts  --      6.3436                 6.3704                 6.7986
 IR Inten    --      1.4028                15.0024                13.1731

 - Thermochemistry -
 -------------------
 Temperature   298.150 Kelvin.  Pressure   1.00000 Atm.
 Atom     1 has atomic number  1 and mass   1.00783

 Molecular mass:   124.08882 amu.
 Principal axes and moments of inertia in atomic units:
                           1         2         3
     Eigenvalues --   834.485741360.828072068.04095
           X            0.13787   0.98016  -0.14243
           Y            0.93246  -0.17693  -0.31497
           Z            0.33392   0.08939   0.93835
 This molecule is an asymmetric top.
 Rotational symmetry number  1.
 Warning -- assumption of classical behavior for rotation
           may cause significant error
 Rotational temperatures (Kelvin)      0.10379     0.06365     0.04188
 Rotational constants (GHZ):           2.16270     1.32621     0.87268
 Zero-point vibrational energy     476769.1 (Joules/Mol)
                                  113.95055 (Kcal/Mol)
 Warning -- explicit consideration of  12 degrees of freedom as
           vibrations may cause significant error
 Vibrational temperatures:     71.86   112.06   178.29   255.42   266.31
          (Kelvin)            292.26   345.48   464.08   622.00   702.47
                              762.56   824.37   927.40  1002.58  1141.40
                             1237.76  1356.50  1356.89  1376.68  1421.86
                             1450.97  1465.69  1488.54  1511.65  1533.10
                             1563.03  1589.55  1678.48  1714.75  1758.49
                             1790.25  1847.64  1894.55  1922.47  1946.86
                             1994.17  2012.45  2040.55  2104.89  2133.45
                             2147.33  2164.99  2187.58  2451.38  2519.87
                             4257.98  4265.34  4282.65  4347.44  4387.86
                             4406.09  4447.45  4456.93  4514.72  4524.23
                             4533.96  4628.71

 Zero-point correction=                           0.181592 (Hartree/Particle)
 Thermal correction to Energy=                    0.191186
 Thermal correction to Enthalpy=                  0.192130
 Thermal correction to Gibbs Free Energy=         0.146378
 Sum of electronic and zero-point Energies=           -387.212973
 Sum of electronic and thermal Energies=              -387.203379
 Sum of electronic and thermal Enthalpies=            -387.202435
 Sum of electronic and thermal Free Energies=         -387.248187

                     E (Thermal)             CV                S
                      KCal/Mol        Cal/Mol-Kelvin    Cal/Mol-Kelvin
 Total                  119.971             34.852             96.293
 Electronic               0.000              0.000              0.000
 Translational            0.889              2.981             40.361
 Rotational               0.889              2.981             29.242
 Vibrational            118.193             28.890             26.690
 Vibration     1          0.595              1.978              4.820
 Vibration     2          0.599              1.964              3.943
 Vibration     3          0.610              1.929              3.038
 Vibration     4          0.628              1.870              2.354
 Vibration     5          0.631              1.860              2.276
 Vibration     6          0.639              1.835              2.105
 Vibration     7          0.657              1.779              1.802
 Vibration     8          0.708              1.630              1.297
 Vibration     9          0.793              1.400              0.851
 Vibration    10          0.844              1.276              0.688
 Vibration    11          0.885              1.184              0.587
 Vibration    12          0.929              1.090              0.499

                       ! Non-Optimized Parameters !

 1\1\GINC-BHC0034\Freq\RB3LYP\def2TZVP\C8H12O1\DHANAWAY\11-Jun-2022\1\\
 #N Geom=AllCheck Guess=TCheck SCRF=Check GenChk RB3LYP/def2TZVP Freq\\
 int_zmat_initalOpt\\0,1\H\C,1,R2\C,2,R3,1,A3\O,2,R4,1,A4,3,D4,0\H,2,R5
 ,1,A5,3,D5,0\C,4,R6,2,A6,1,D6,0\C,3,R7,2,A7,1,D7,0\C,3,R8,2,A8,7,D8,0\
 H,6,R9,4,A9,2,D9,0\H,6,R10,4,A10,9,D10,0\C,7,R11,3,A11,2,D11,0\H,7,R12
 ,3,A12,11,D12,0\H,8,R13,3,A13,2,D13,0\C,8,R14,3,A14,13,D14,0\C,11,R15,
 7,A15,3,D15,0\H,11,R16,7,A16,15,D16,0\H,14,R17,8,A17,3,D17,0\H,14,R18,
 8,A18,17,D18,0\H,14,R19,8,A19,17,D19,0\H,15,R20,11,A20,7,D20,0\H,15,R2

 Normal termination of Gaussian 16 at Sat Jun 11 00:00:55 2022.
