 Gaussian 16, Revision A.03,
 Gaussian 16:  ES64L-G16RevA.03 25-Dec-2016

 ----------------------------------------------------------------------
 # Opt=(Z-matrix, MaxStep=10) B3LYP/Def2TZVP geom=allcheckpoint guess=r
 ead Field=read NoSymm freq=noraman pop=none
 ----------------------------------------------------------------------

 Structure from the checkpoint file:  "checkpoint.chk"
 ------------------
 int_zmat_initalOpt
 ------------------
 Charge =  0 Multiplicity = 1

 SCF Done:  E(RB3LYP) =  -312.120544537     A.U. after   10 cycles
 SCF Done:  E(RB3LYP) =  -312.120553501     A.U. after    8 cycles
 SCF Done:  E(RB3LYP) =  -312.120555596     A.U. after    8 cycles
 SCF Done:  E(RB3LYP) =  -312.120556663     A.U. after    7 cycles
 SCF Done:  E(RB3LYP) =  -312.120557926     A.U. after    8 cycles
 SCF Done:  E(RB3LYP) =  -312.120558706     A.U. after    8 cycles
 SCF Done:  E(RB3LYP) =  -312.120559079     A.U. after    8 cycles
 Optimization completed.
    -- Stationary point found.
 Normal termination of Gaussian 16 at Sat Jun 11 00:27:45 2022.

 --------------------------------------------------------------------
 #N Geom=AllCheck Guess=TCheck SCRF=Check GenChk RB3LYP/def2TZVP Freq
 --------------------------------------------------------------------

 Structure from the checkpoint file:  "checkpoint.chk"
 ------------------
 int_zmat_initalOpt
 ------------------
 Charge =  0 Multiplicity = 1

                          Input orientation:
 ---------------------------------------------------------------------
 Center     Atomic      Atomic             Coordinates (Angstroms)
 Number     Number       Type             X           Y           Z
 ---------------------------------------------------------------------
      1          1           0        0.000000    0.000000    0.000000
      2          6           0        0.000000    0.000000    1.089949
      3          6           0        1.387180    0.000000    1.777285
      4          6           0       -0.341060    1.333080    1.806458
      5          1           0       -0.636280   -0.817258    1.438504
      6          1           0       -1.313652    1.349998    2.312593
      7          6           0        0.858061    1.029030    2.801331
      8          6           0       -0.203714    2.598987    1.019809
      9          1           0        2.148602    0.431641    1.129095
     10          1           0        1.762187   -0.943971    2.170606
     11          1           0        0.431269    0.495959    3.658754
     12          1           0       -0.168485    3.501403    1.624783
     13          6           0        1.719598    2.136077    3.313307
     14          6           0       -0.104957    2.729653   -0.298457
     15          1           0       -0.093495    1.878597   -0.968881
     16          1           0        0.016808    3.704192   -0.753861
     17          6           0        3.013688    2.297909    3.067352
     18          1           0        1.223869    2.844052    3.974577
     19          1           0        3.574070    3.113160    3.505361
     20          1           0        3.574115    1.619781    2.435530
 ---------------------------------------------------------------------

 SCF Done:  E(RB3LYP) =  -312.120559079     A.U. after    1 cycles

 Isotropic polarizability for W=    0.000000       92.67 Bohr**3.
 End of Minotr F.D. properties file   721 does not exist.

                      1                      2                      3
                      A                      A                      A
 Frequencies --     59.4515                95.0659                99.9927
 Red. masses --      2.8179                 2.1700                 2.3430
 Frc consts  --      0.0059                 0.0116                 0.0138
 IR Inten    --      0.2822                 0.1454                 0.0786

                      4                      5                      6
                      A                      A                      A
 Frequencies --    205.3333               252.3762               300.9294
 Red. masses --      2.1364                 2.4732                 2.4398
 Frc consts  --      0.0531                 0.0928                 0.1302
 IR Inten    --      0.0224                 0.1945                 0.5277

                      7                      8                      9
                      A                      A                      A
 Frequencies --    400.5786               494.1214               531.8662
 Red. masses --      2.0079                 2.1680                 2.1297
 Frc consts  --      0.1898                 0.3119                 0.3550
 IR Inten    --      4.3037                 2.0694                 0.7658

                     10                     11                     12
                      A                      A                      A
 Frequencies --    599.8095               641.9029               733.2486
 Red. masses --      1.9923                 2.0147                 1.5205
 Frc consts  --      0.4223                 0.4891                 0.4817
 IR Inten    --      3.5491                 5.9429                 2.4638

                     13                     14                     15
                      A                      A                      A
 Frequencies --    765.8513               811.7004               904.1297
 Red. masses --      1.8149                 2.1520                 2.2038
 Frc consts  --      0.6272                 0.8354                 1.0614
 IR Inten    --      5.6270                 2.2695                 3.0838

                     16                     17                     18
                      A                      A                      A
 Frequencies --    936.1546               937.6765               945.6119
 Red. masses --      1.3986                 2.5810                 2.3715
 Frc consts  --      0.7222                 1.3370                 1.2494
 IR Inten    --     43.0402                 6.0907                 3.3056

                     19                     20                     21
                      A                      A                      A
 Frequencies --    978.8926               992.1813              1021.9955
 Red. masses --      1.6926                 1.3066                 1.2663
 Frc consts  --      0.9556                 0.7578                 0.7793
 IR Inten    --      0.0525                43.2067                 4.0991

                     22                     23                     24
                      A                      A                      A
 Frequencies --   1027.7796              1033.9672              1060.5796
 Red. masses --      1.1159                 1.1530                 1.8401
 Frc consts  --      0.6945                 0.7263                 1.2195
 IR Inten    --      7.2378                 7.4180                 0.6696

                     25                     26                     27
                      A                      A                      A
 Frequencies --   1080.0188              1120.7632              1157.4238
 Red. masses --      1.7535                 1.5118                 1.8286
 Frc consts  --      1.2051                 1.1189                 1.4433
 IR Inten    --     13.0548                 5.0193                 0.6489

                     28                     29                     30
                      A                      A                      A
 Frequencies --   1199.3583              1227.8468              1254.7586
 Red. masses --      1.3583                 1.3298                 1.2968
 Frc consts  --      1.1512                 1.1812                 1.2029
 IR Inten    --      1.4986                 0.8805                 0.5311

                     31                     32                     33
                      A                      A                      A
 Frequencies --   1261.6123              1277.6930              1332.2577
 Red. masses --      1.4004                 1.3830                 1.3047
 Frc consts  --      1.3132                 1.3302                 1.3644
 IR Inten    --      1.7211                 1.0870                 2.4878

                     34                     35                     36
                      A                      A                      A
 Frequencies --   1339.6557              1354.3396              1375.6641
 Red. masses --      1.3043                 1.4160                 1.6844
 Frc consts  --      1.3792                 1.5303                 1.8781
 IR Inten    --      0.1329                 1.8666                 6.5153

                     37                     38                     39
                      A                      A                      A
 Frequencies --   1452.5701              1463.4347              1485.5478
 Red. masses --      1.1993                 1.2061                 1.0928
 Frc consts  --      1.4909                 1.5218                 1.4208
 IR Inten    --      2.2162                 9.7772                 1.8549

                     40                     41                     42
                      A                      A                      A
 Frequencies --   1502.6429              1699.2428              1705.1454
 Red. masses --      1.1244                 4.4968                 4.4733
 Frc consts  --      1.4959                 7.6500                 7.6630
 IR Inten    --      4.6283                22.6851                 4.3710

                     43                     44                     45
                      A                      A                      A
 Frequencies --   2980.8837              3001.9814              3034.6643
 Red. masses --      1.0831                 1.0829                 1.0644
 Frc consts  --      5.6705                 5.7497                 5.7755
 IR Inten    --     31.8895                57.1118                89.3035

                     46                     47                     48
                      A                      A                      A
 Frequencies --   3071.4023              3084.9569              3112.8579
 Red. masses --      1.0601                 1.0993                 1.0862
 Frc consts  --      5.8923                 6.1640                 6.2013
 IR Inten    --     22.5708                29.7518                15.5775

                     49                     50                     51
                      A                      A                      A
 Frequencies --   3120.6632              3130.1467              3140.0611
 Red. masses --      1.1080                 1.0793                 1.0677
 Frc consts  --      6.3572                 6.2307                 6.2025
 IR Inten    --     28.7228                15.0909                 7.5451

                     52                     53                     54
                      A                      A                      A
 Frequencies --   3151.6389              3215.2819              3232.4356
 Red. masses --      1.0626                 1.1147                 1.1159
 Frc consts  --      6.2185                 6.7897                 6.8695
 IR Inten    --      1.2789                13.6689                 2.7260

 - Thermochemistry -
 -------------------
 Temperature   298.150 Kelvin.  Pressure   1.00000 Atm.
 Atom     1 has atomic number  1 and mass   1.00783

 Molecular mass:   108.09390 amu.
 Principal axes and moments of inertia in atomic units:
                           1         2         3
     Eigenvalues --   645.272201068.806541380.18889
           X            0.69194   0.12019   0.71188
           Y           -0.00073   0.98616  -0.16580
           Z            0.72195  -0.11420  -0.68245
 This molecule is an asymmetric top.
 Rotational symmetry number  1.
 Warning -- assumption of classical behavior for rotation
           may cause significant error
 Rotational temperatures (Kelvin)      0.13423     0.08104     0.06276
 Rotational constants (GHZ):           2.79687     1.68856     1.30760
 Zero-point vibrational energy     462943.7 (Joules/Mol)
                                  110.64620 (Kcal/Mol)
 Warning -- explicit consideration of  10 degrees of freedom as
           vibrations may cause significant error
 Vibrational temperatures:     85.54   136.78   143.87   295.43   363.11
          (Kelvin)            432.97   576.34   710.93   765.24   862.99
                              923.56  1054.98  1101.89  1167.86  1300.84
                             1346.92  1349.11  1360.52  1408.41  1427.53
                             1470.42  1478.75  1487.65  1525.94  1553.91
                             1612.53  1665.27  1725.61  1766.60  1805.32
                             1815.18  1838.32  1916.82  1927.47  1948.59
                             1979.27  2089.92  2105.56  2137.37  2161.97
                             2444.83  2453.32  4288.83  4319.18  4366.21
                             4419.06  4438.56  4478.71  4489.94  4503.58
                             4517.85  4534.51  4626.07  4650.75

 Zero-point correction=                           0.176326 (Hartree/Particle)
 Thermal correction to Energy=                    0.184810
 Thermal correction to Enthalpy=                  0.185754
 Thermal correction to Gibbs Free Energy=         0.142870
 Sum of electronic and zero-point Energies=           -311.944233
 Sum of electronic and thermal Energies=              -311.935749
 Sum of electronic and thermal Enthalpies=            -311.934805
 Sum of electronic and thermal Free Energies=         -311.977689

                     E (Thermal)             CV                S
                      KCal/Mol        Cal/Mol-Kelvin    Cal/Mol-Kelvin
 Total                  115.970             31.667             90.257
 Electronic               0.000              0.000              0.000
 Translational            0.889              2.981             39.950
 Rotational               0.889              2.981             28.345
 Vibrational            114.192             25.705             21.962
 Vibration     1          0.597              1.974              4.475
 Vibration     2          0.603              1.953              3.553
 Vibration     3          0.604              1.949              3.454
 Vibration     4          0.640              1.832              2.085
 Vibration     5          0.664              1.759              1.714
 Vibration     6          0.693              1.672              1.412
 Vibration     7          0.766              1.469              0.961
 Vibration     8          0.850              1.263              0.673
 Vibration     9          0.887              1.180              0.583
 Vibration    10          0.958              1.032              0.450

                       ! Non-Optimized Parameters !
 Normal termination of Gaussian 16 at Sat Jun 11 00:37:54 2022.
