 Gaussian 16, Revision A.03,
 Gaussian 16:  ES64L-G16RevA.03 25-Dec-2016

 ----------------------------------------------------------------------
 # Opt=(Z-matrix, MaxStep=10) B3LYP/Def2TZVP geom=allcheckpoint guess=r
 ead Field=read NoSymm freq=noraman pop=none
 ----------------------------------------------------------------------

 Structure from the checkpoint file:  "checkpoint.chk"
 ------------------
 int_zmat_initalOpt
 ------------------
 Charge =  0 Multiplicity = 1

 SCF Done:  E(RB3LYP) =  -210.250552904     A.U. after   10 cycles
 SCF Done:  E(RB3LYP) =  -210.250559074     A.U. after    8 cycles
 SCF Done:  E(RB3LYP) =  -210.250559446     A.U. after    7 cycles
 Optimization completed.
    -- Stationary point found.
 Normal termination of Gaussian 16 at Fri Jun 10 22:31:28 2022.

 --------------------------------------------------------------------
 #N Geom=AllCheck Guess=TCheck SCRF=Check GenChk RB3LYP/def2TZVP Freq
 --------------------------------------------------------------------

 Structure from the checkpoint file:  "checkpoint.chk"
 ------------------
 int_zmat_initalOpt
 ------------------
 Charge =  0 Multiplicity = 1

                          Input orientation:
 ---------------------------------------------------------------------
 Center     Atomic      Atomic             Coordinates (Angstroms)
 Number     Number       Type             X           Y           Z
 ---------------------------------------------------------------------
      1          1           0        0.000000    0.000000    0.000000
      2          6           0        0.000000    0.000000    1.077238
      3          6           0        1.144805    0.000000    1.918469
      4          6           0       -1.107896    0.011818    1.888316
      5          1           0        2.174756   -0.005239    1.603130
      6          6           0        0.701769    0.011020    3.217418
      7          7           0       -0.670713    0.017325    3.190135
      8          1           0       -2.157791    0.020000    1.649446
      9          1           0        1.244782    0.017112    4.147050
     10          1           0       -1.262748    0.030663    3.999407
 ---------------------------------------------------------------------

 SCF Done:  E(RB3LYP) =  -210.250559446     A.U. after    1 cycles

 Isotropic polarizability for W=    0.000000       49.85 Bohr**3.
 End of Minotr F.D. properties file   721 does not exist.

                      1                      2                      3
                      A                      A                      A
 Frequencies --    398.4996               627.0739               637.9684
 Red. masses --      1.3839                 3.1902                 2.4408
 Frc consts  --      0.1295                 0.7391                 0.5853
 IR Inten    --     69.6482                 0.0097                 0.1844

                      4                      5                      6
                      A                      A                      A
 Frequencies --    672.3857               726.2927               828.3655
 Red. masses --      1.2932                 1.2054                 1.2203
 Frc consts  --      0.3445                 0.3746                 0.4933
 IR Inten    --      2.0722               150.8059                 7.2145

                      7                      8                      9
                      A                      A                      A
 Frequencies --    878.3659               888.0197               904.5812
 Red. masses --      5.0817                 1.2987                 4.0914
 Frc consts  --      2.3100                 0.6034                 1.9725
 IR Inten    --      1.8861                 0.0372                 0.5140

                     10                     11                     12
                      A                      A                      A
 Frequencies --   1036.1891              1068.4409              1089.3097
 Red. masses --      1.4619                 1.4182                 1.5693
 Frc consts  --      0.9248                 0.9538                 1.0971
 IR Inten    --     33.9429                29.5840                 5.4532

                     13                     14                     15
                      A                      A                      A
 Frequencies --   1153.5341              1173.1765              1315.6111
 Red. masses --      1.2470                 3.4475                 1.3667
 Frc consts  --      0.9776                 2.7957                 1.3938
 IR Inten    --      0.8739                 4.8477                 0.7910

                     16                     17                     18
                      A                      A                      A
 Frequencies --   1417.8986              1447.1782              1497.2771
 Red. masses --      4.2090                 2.9166                 2.6362
 Frc consts  --      4.9857                 3.5989                 3.4820
 IR Inten    --      4.3118                 5.9527                 7.0222

                     19                     20                     21
                      A                      A                      A
 Frequencies --   1577.8737              3240.7616              3249.1932
 Red. masses --      3.1004                 1.0880                 1.0920
 Frc consts  --      4.5479                 6.7324                 6.7921
 IR Inten    --      2.3745                 0.2574                 1.1641

                     22                     23                     24
                      A                      A                      A
 Frequencies --   3260.0170              3267.8242              3674.2206
 Red. masses --      1.1000                 1.1068                 1.0801
 Frc consts  --      6.8877                 6.9635                 8.5908
 IR Inten    --      4.1767                 0.5460                43.5871

 - Thermochemistry -
 -------------------
 Temperature   298.150 Kelvin.  Pressure   1.00000 Atm.
 Atom     1 has atomic number  1 and mass   1.00783

 Molecular mass:    67.04220 amu.
 Principal axes and moments of inertia in atomic units:
                           1         2         3
     Eigenvalues --   196.45774 199.20385 395.66086
           X           -0.59983   0.80011   0.00529
           Y            0.00835  -0.00036   0.99997
           Z            0.80008   0.59986  -0.00647
 This molecule is an asymmetric top.
 Rotational symmetry number  1.
 Rotational temperatures (Kelvin)      0.44088     0.43480     0.21891
 Rotational constants (GHZ):           9.18641     9.05977     4.56133
 Zero-point vibrational energy     215507.6 (Joules/Mol)
                                   51.50755 (Kcal/Mol)
 Warning -- explicit consideration of   1 degrees of freedom as
           vibrations may cause significant error
 Vibrational temperatures:    573.35   902.22   917.89   967.41  1044.97
          (Kelvin)           1191.83  1263.77  1277.66  1301.49  1490.84
                             1537.25  1567.27  1659.68  1687.94  1892.87
                             2040.04  2082.17  2154.25  2270.21  4662.73
                             4674.86  4690.44  4701.67  5286.38

 Zero-point correction=                           0.082083 (Hartree/Particle)
 Thermal correction to Energy=                    0.086134
 Thermal correction to Enthalpy=                  0.087079
 Thermal correction to Gibbs Free Energy=         0.055639
 Sum of electronic and zero-point Energies=           -210.168477
 Sum of electronic and thermal Energies=              -210.164425
 Sum of electronic and thermal Enthalpies=            -210.163481
 Sum of electronic and thermal Free Energies=         -210.194920

                     E (Thermal)             CV                S
                      KCal/Mol        Cal/Mol-Kelvin    Cal/Mol-Kelvin
 Total                   54.050             15.031             66.169
 Electronic               0.000              0.000              0.000
 Translational            0.889              2.981             38.526
 Rotational               0.889              2.981             24.252
 Vibrational             52.273              9.069              3.391
 Vibration     1          0.765              1.473              0.968

                       ! Non-Optimized Parameters !
 Normal termination of Gaussian 16 at Fri Jun 10 22:32:57 2022.
