 Gaussian 16, Revision A.03,
 Gaussian 16:  ES64L-G16RevA.03 25-Dec-2016

 ----------------------------------------------------------------------
 # Opt=(TS, CalcFC, noeigentest, Z-matrix, MaxStep=10) Field=read NoSym
 m B3LYP/Def2TZVP freq=noraman pop=none
 ----------------------------------------------------------------------

 -----------------
 ts_zmat_initalOpt
 -----------------
 Symbolic Z-matrix:
 Charge =  0 Multiplicity = 1

 SCF Done:  E(RB3LYP) =  -210.177246383     A.U. after   14 cycles
 SCF Done:  E(RB3LYP) =  -210.177252747     A.U. after    9 cycles
 Optimization completed.
    -- Stationary point found.
 Normal termination of Gaussian 16 at Fri Jun 10 22:29:56 2022.

 --------------------------------------------------------------------
 #N Geom=AllCheck Guess=TCheck SCRF=Check GenChk RB3LYP/def2TZVP Freq
 --------------------------------------------------------------------

 Structure from the checkpoint file:  "checkpoint.chk"
 -----------------
 ts_zmat_initalOpt
 -----------------
 Charge =  0 Multiplicity = 1

                          Input orientation:
 ---------------------------------------------------------------------
 Center     Atomic      Atomic             Coordinates (Angstroms)
 Number     Number       Type             X           Y           Z
 ---------------------------------------------------------------------
      1          1           0        0.000000    0.000000    0.000000
      2          6           0        0.000000    0.000000    1.078385
      3          6           0        1.108249    0.000000    1.920371
      4          6           0       -1.130454    0.000832    1.903481
      5          1           0        2.143394   -0.017986    1.614336
      6          1           0       -1.206549   -0.992121    2.725079
      7          6           0        0.638883   -0.019655    3.233775
      8          7           0       -0.709449    0.032254    3.296344
      9          1           0       -2.155259    0.243288    1.667525
     10          1           0        1.214765   -0.107847    4.143101
 ---------------------------------------------------------------------

 SCF Done:  E(RB3LYP) =  -210.177252747     A.U. after    1 cycles

 Isotropic polarizability for W=    0.000000       50.51 Bohr**3.
 End of Minotr F.D. properties file   721 does not exist.

 ******    1 imaginary frequencies (negative Signs) ******

                      1                      2                      3
                      A                      A                      A
 Frequencies --  -1493.1427               588.9433               640.1990
 Red. masses --      1.2123                 2.2315                 3.8470
 Frc consts  --      1.5924                 0.4560                 0.9290
 IR Inten    --    107.0617                 2.5929                 3.4922

                      4                      5                      6
                      A                      A                      A
 Frequencies --    750.5872               844.4130               868.7758
 Red. masses --      1.1352                 1.4317                 1.7414
 Frc consts  --      0.3768                 0.6015                 0.7744
 IR Inten    --     90.8927                 6.4661                17.3469

                      7                      8                      9
                      A                      A                      A
 Frequencies --    881.3057               890.3037               938.3592
 Red. masses --      2.7069                 3.8909                 1.5321
 Frc consts  --      1.2387                 1.8171                 0.7948
 IR Inten    --      6.3709                 3.9319                 3.0421

                     10                     11                     12
                      A                      A                      A
 Frequencies --    955.1322              1065.6530              1090.4401
 Red. masses --      2.7061                 1.3725                 1.2499
 Frc consts  --      1.4545                 0.9183                 0.8757
 IR Inten    --     36.5412                10.2634                 1.4175

                     13                     14                     15
                      A                      A                      A
 Frequencies --   1135.7217              1174.6646              1252.8097
 Red. masses --      2.2320                 1.1405                 1.7408
 Frc consts  --      1.6962                 0.9272                 1.6098
 IR Inten    --      2.7766                25.0322                 1.5403

                     16                     17                     18
                      A                      A                      A
 Frequencies --   1312.7228              1430.9027              1482.8769
 Red. masses --      1.8701                 2.8568                 3.1776
 Frc consts  --      1.8987                 3.4463                 4.1168
 IR Inten    --      2.5658                 7.0857                 3.2979

                     19                     20                     21
                      A                      A                      A
 Frequencies --   1510.0144              2182.9772              3211.4273
 Red. masses --      3.5287                 1.0725                 1.0887
 Frc consts  --      4.7405                 3.0113                 6.6155
 IR Inten    --      1.4410                15.0948                 4.4127

                     22                     23                     24
                      A                      A                      A
 Frequencies --   3226.5656              3230.4108              3247.7634
 Red. masses --      1.0930                 1.0951                 1.1042
 Frc consts  --      6.7042                 6.7334                 6.8624
 IR Inten    --      5.2599                 3.8652                 0.8378

 - Thermochemistry -
 -------------------
 Temperature   298.150 Kelvin.  Pressure   1.00000 Atm.
 Atom     1 has atomic number  1 and mass   1.00783

 Molecular mass:    67.04220 amu.
 Principal axes and moments of inertia in atomic units:
                           1         2         3
     Eigenvalues --   196.15460 203.94452 392.44927
           X           -0.39001   0.92081   0.00015
           Y           -0.00911  -0.00402   0.99995
           Z            0.92076   0.38999   0.00996
 This molecule is an asymmetric top.
 Rotational symmetry number  1.
 Rotational temperatures (Kelvin)      0.44156     0.42469     0.22070
 Rotational constants (GHZ):           9.20061     8.84918     4.59866
    1 imaginary frequencies ignored.
 Zero-point vibrational energy     202844.6 (Joules/Mol)
                                   48.48102 (Kcal/Mol)
 Warning -- explicit consideration of   1 degrees of freedom as
           vibrations may cause significant error
 Vibrational temperatures:    847.36   921.10  1079.93  1214.92  1249.97
          (Kelvin)           1268.00  1280.95  1350.09  1374.22  1533.24
                             1568.90  1634.05  1690.08  1802.51  1888.72
                             2058.75  2133.53  2172.57  3140.82  4620.53
                             4642.31  4647.84  4672.81

 Zero-point correction=                           0.077259 (Hartree/Particle)
 Thermal correction to Energy=                    0.080958
 Thermal correction to Enthalpy=                  0.081903
 Thermal correction to Gibbs Free Energy=         0.050975
 Sum of electronic and zero-point Energies=           -210.099993
 Sum of electronic and thermal Energies=              -210.096294
 Sum of electronic and thermal Enthalpies=            -210.095350
 Sum of electronic and thermal Free Energies=         -210.126278

                     E (Thermal)             CV                S
                      KCal/Mol        Cal/Mol-Kelvin    Cal/Mol-Kelvin
 Total                   50.802             13.383             65.093
 Electronic               0.000              0.000              0.000
 Translational            0.889              2.981             38.526
 Rotational               0.889              2.981             24.266
 Vibrational             49.025              7.421              2.301
 Vibration     1          0.946              1.055              0.469

 Optimization completed.
    -- Stationary point found.
 Normal termination of Gaussian 16 at Fri Jun 10 22:31:26 2022.
