 Gaussian 16, Revision A.03,
 Gaussian 16:  ES64L-G16RevA.03 25-Dec-2016

 ----------------------------------------------------------------------
 # Opt=(TS, CalcFC, noeigentest, Z-matrix, MaxStep=10) geom=allcheckpoi
 nt guess=read Field=read NoSymm B3LYP/Def2TZVP freq=noraman pop=none
 ----------------------------------------------------------------------

 Structure from the checkpoint file:  "checkpoint.chk"
 -----------------
 ts_zmat_initalOpt
 -----------------
 Charge =  0 Multiplicity = 1

 SCF Done:  E(RB3LYP) =  -387.298898621     A.U. after   11 cycles
 SCF Done:  E(RB3LYP) =  -387.298937520     A.U. after   10 cycles
 Optimization completed.
    -- Stationary point found.
 Normal termination of Gaussian 16 at Sat Jun 11 01:13:57 2022.

 --------------------------------------------------------------------
 #N Geom=AllCheck Guess=TCheck SCRF=Check GenChk RB3LYP/def2TZVP Freq
 --------------------------------------------------------------------

 Structure from the checkpoint file:  "checkpoint.chk"
 -----------------
 ts_zmat_initalOpt
 -----------------
 Charge =  0 Multiplicity = 1

                          Input orientation:
 ---------------------------------------------------------------------
 Center     Atomic      Atomic             Coordinates (Angstroms)
 Number     Number       Type             X           Y           Z
 ---------------------------------------------------------------------
      1          1           0        0.000000    0.000000    0.000000
      2          6           0        0.000000    0.000000    1.096518
      3          6           0        1.353119    0.000000    1.646660
      4          8           0       -0.713918    1.193278    1.489691
      5          1           0       -0.563425   -0.879489    1.432628
      6          6           0       -0.071628    1.862919    2.597790
      7          6           0        2.601694    0.012233    1.578503
      8          6           0        0.553893    0.853836    3.506722
      9          1           0       -0.882905    2.401729    3.097905
     10          1           0        0.655804    2.595635    2.235107
     11          6           0        3.818922   -0.287442    0.785985
     12          6           0        1.714282    0.941520    4.252321
     13          1           0       -0.182795    0.147099    3.885941
     14          1           0        3.575054   -0.625086   -0.223779
     15          1           0        4.410944   -1.064719    1.273736
     16          1           0        4.461902    0.592477    0.715995
     17          6           0        2.910614    1.512009    3.788403
     18          1           0        1.812678    0.221705    5.058538
     19          1           0        2.882512    2.411378    3.179987
     20          1           0        3.029848    0.631513    2.772115
     21          1           0        3.788064    1.444935    4.421714
 ---------------------------------------------------------------------

 SCF Done:  E(RB3LYP) =  -387.298937520     A.U. after    1 cycles

 Isotropic polarizability for W=    0.000000      105.94 Bohr**3.
 End of Minotr F.D. properties file   721 does not exist.

 ******    1 imaginary frequencies (negative Signs) ******

                      1                      2                      3
                      A                      A                      A
 Frequencies --  -1174.3193               112.6013               129.6406
 Red. masses --      1.4705                 2.8605                 1.0587
 Frc consts  --      1.1948                 0.0214                 0.0105
 IR Inten    --      1.4280                 1.0327                 0.0037

                      4                      5                      6
                      A                      A                      A
 Frequencies --    160.0747               202.4279               214.0164
 Red. masses --      3.1140                 2.4221                 2.5917
 Frc consts  --      0.0470                 0.0585                 0.0699
 IR Inten    --      6.2127                 2.9347                 3.3769

                      7                      8                      9
                      A                      A                      A
 Frequencies --    260.0163               277.5542               355.0593
 Red. masses --      2.6998                 3.5389                 3.6749
 Frc consts  --      0.1075                 0.1606                 0.2730
 IR Inten    --      0.6802                 0.6563                 1.0493

                     10                     11                     12
                      A                      A                      A
 Frequencies --    412.6394               421.6603               483.2290
 Red. masses --      3.3261                 2.6323                 3.9617
 Frc consts  --      0.3337                 0.2758                 0.5450
 IR Inten    --      0.1312                 3.2560                 1.4024

                     13                     14                     15
                      A                      A                      A
 Frequencies --    567.4070               587.4806               647.3839
 Red. masses --      2.8129                 3.3910                 3.6485
 Frc consts  --      0.5336                 0.6895                 0.9009
 IR Inten    --      0.5128                 6.4251                 2.0145

                     16                     17                     18
                      A                      A                      A
 Frequencies --    724.1696               850.4027               858.7603
 Red. masses --      1.4705                 2.9798                 1.2484
 Frc consts  --      0.4543                 1.2697                 0.5424
 IR Inten    --     19.9373                 2.0628                22.9898

                     19                     20                     21
                      A                      A                      A
 Frequencies --    879.2514               961.9992              1002.1136
 Red. masses --      4.4846                 1.9134                 4.4881
 Frc consts  --      2.0427                 1.0433                 2.6555
 IR Inten    --     47.7996                 9.3609                59.2532

                     22                     23                     24
                      A                      A                      A
 Frequencies --   1019.1133              1028.6378              1038.4478
 Red. masses --      1.5291                 1.5315                 1.6959
 Frc consts  --      0.9357                 0.9548                 1.0775
 IR Inten    --      6.4827                 0.7952                21.2178

                     25                     26                     27
                      A                      A                      A
 Frequencies --   1054.5219              1068.4546              1071.5259
 Red. masses --      1.4174                 1.4620                 1.6755
 Frc consts  --      0.9287                 0.9834                 1.1334
 IR Inten    --      5.1280                14.8810                 0.6897

                     28                     29                     30
                      A                      A                      A
 Frequencies --   1126.9749              1145.6852              1199.0120
 Red. masses --      1.9907                 2.4049                 1.3143
 Frc consts  --      1.4897                 1.8599                 1.1132
 IR Inten    --      7.3162                13.1325                 3.2980

                     31                     32                     33
                      A                      A                      A
 Frequencies --   1224.0019              1246.0588              1297.4019
 Red. masses --      1.2575                 1.1927                 1.0817
 Frc consts  --      1.1100                 1.0911                 1.0728
 IR Inten    --     13.9353                12.2600                10.1116

                     34                     35                     36
                      A                      A                      A
 Frequencies --   1331.7506              1346.2930              1372.4945
 Red. masses --      1.2297                 1.2325                 1.3087
 Frc consts  --      1.2850                 1.3162                 1.4525
 IR Inten    --      3.3538                 6.6826                37.2011

                     37                     38                     39
                      A                      A                      A
 Frequencies --   1412.5679              1433.2826              1459.3296
 Red. masses --      1.2004                 1.1025                 1.2369
 Frc consts  --      1.4113                 1.3344                 1.5520
 IR Inten    --      3.2222                 2.1030                 0.7108

                     40                     41                     42
                      A                      A                      A
 Frequencies --   1478.2767              1485.8908              1506.2692
 Red. masses --      1.0423                 1.0464                 1.0947
 Frc consts  --      1.3421                 1.3612                 1.4634
 IR Inten    --      9.4469                14.0154                 0.5488

                     43                     44                     45
                      A                      A                      A
 Frequencies --   1512.7204              1518.7826              1619.4240
 Red. masses --      1.0973                 1.5002                 4.0047
 Frc consts  --      1.4794                 2.0388                 6.1878
 IR Inten    --      2.7106                 4.5050                18.6248

                     46                     47                     48
                      A                      A                      A
 Frequencies --   2046.4171              2978.0482              2998.1231
 Red. masses --      8.5582                 1.0579                 1.1030
 Frc consts  --     21.1165                 5.5277                 5.8414
 IR Inten    --     33.5048               106.5680                55.9365

                     49                     50                     51
                      A                      A                      A
 Frequencies --   3007.9506              3025.9339              3036.3044
 Red. masses --      1.0556                 1.0348                 1.1065
 Frc consts  --      5.6274                 5.5826                 6.0103
 IR Inten    --     71.0017                36.3850                33.5645

                     52                     53                     54
                      A                      A                      A
 Frequencies --   3088.1429              3089.9129              3099.3611
 Red. masses --      1.1019                 1.1002                 1.0860
 Frc consts  --      6.1914                 6.1891                 6.1467
 IR Inten    --     15.0257                 5.1212                30.3402

                     55                     56                     57
                      A                      A                      A
 Frequencies --   3111.3854              3150.8778              3194.7198
 Red. masses --      1.0598                 1.0894                 1.1104
 Frc consts  --      6.0445                 6.3722                 6.6774
 IR Inten    --      7.3161                 4.5972                 2.7684

 - Thermochemistry -
 -------------------
 Temperature   298.150 Kelvin.  Pressure   1.00000 Atm.
 Atom     1 has atomic number  1 and mass   1.00783

 Molecular mass:   124.08882 amu.
 Principal axes and moments of inertia in atomic units:
                           1         2         3
     Eigenvalues --   902.233431216.273761883.64969
           X            0.95987   0.20088   0.19572
           Y           -0.25912   0.36816   0.89293
           Z           -0.10731   0.90780  -0.40543
 This molecule is an asymmetric top.
 Rotational symmetry number  1.
 Warning -- assumption of classical behavior for rotation
           may cause significant error
 Rotational temperatures (Kelvin)      0.09600     0.07121     0.04598
 Rotational constants (GHZ):           2.00030     1.48383     0.95811
    1 imaginary frequencies ignored.
 Zero-point vibrational energy     460155.4 (Joules/Mol)
                                  109.97979 (Kcal/Mol)
 Warning -- explicit consideration of  13 degrees of freedom as
           vibrations may cause significant error
 Vibrational temperatures:    162.01   186.52   230.31   291.25   307.92
          (Kelvin)            374.11   399.34   510.85   593.70   606.68
                              695.26   816.37   845.25   931.44  1041.92
                             1223.54  1235.56  1265.05  1384.10  1441.82
                             1466.28  1479.98  1494.09  1517.22  1537.27
                             1541.69  1621.47  1648.39  1725.11  1761.07
                             1792.80  1866.67  1916.09  1937.02  1974.71
                             2032.37  2062.17  2099.65  2126.91  2137.87
                             2167.19  2176.47  2185.19  2329.99  2944.34
                             4284.75  4313.63  4327.77  4353.64  4368.56
                             4443.15  4445.70  4459.29  4476.59  4533.41
                             4596.49

 Zero-point correction=                           0.175264 (Hartree/Particle)
 Thermal correction to Energy=                    0.184520
 Thermal correction to Enthalpy=                  0.185464
 Thermal correction to Gibbs Free Energy=         0.141563
 Sum of electronic and zero-point Energies=           -387.123674
 Sum of electronic and thermal Energies=              -387.114418
 Sum of electronic and thermal Enthalpies=            -387.113474
 Sum of electronic and thermal Free Energies=         -387.157374

                     E (Thermal)             CV                S
                      KCal/Mol        Cal/Mol-Kelvin    Cal/Mol-Kelvin
 Total                  115.788             35.173             92.396
 Electronic               0.000              0.000              0.000
 Translational            0.889              2.981             40.361
 Rotational               0.889              2.981             29.115
 Vibrational            114.010             29.211             22.920
 Vibration     1          0.607              1.939              3.224
 Vibration     2          0.612              1.924              2.951
 Vibration     3          0.622              1.891              2.549
 Vibration     4          0.639              1.836              2.111
 Vibration     5          0.644              1.820              2.009
 Vibration     6          0.668              1.746              1.662
 Vibration     7          0.679              1.715              1.549
 Vibration     8          0.731              1.565              1.144
 Vibration     9          0.776              1.443              0.917
 Vibration    10          0.784              1.423              0.886
 Vibration    11          0.839              1.287              0.701
 Vibration    12          0.923              1.102              0.509
 Vibration    13          0.945              1.058              0.472

 Optimization completed.
    -- Stationary point found.

 1\1\GINC-BHC0009\Freq\RB3LYP\def2TZVP\C8H12O1\DHANAWAY\11-Jun-2022\1\\
 #N Geom=AllCheck Guess=TCheck SCRF=Check GenChk RB3LYP/def2TZVP Freq\\
 ts_zmat_initalOpt\\0,1\H\C,1,R2\C,2,R3,1,A3\O,2,R4,1,A4,3,D4,0\H,2,R5,
 1,A5,3,D5,0\C,4,R6,2,A6,1,D6,0\C,3,R7,2,A7,1,D7,0\C,6,R8,4,A8,2,D8,0\H
 ,6,R9,4,A9,8,D9,0\H,6,R10,4,A10,8,D10,0\C,7,R11,3,A11,2,D11,0\C,8,R12,
 6,A12,4,D12,0\H,8,R13,6,A13,12,D13,0\H,11,R14,7,A14,3,D14,0\H,11,R15,7
 ,A15,14,D15,0\H,11,R16,7,A16,14,D16,0\C,12,R17,8,A17,6,D17,0\H,12,R18,
 8,A18,17,D18,0\H,17,R19,12,A19,8,D19,0\H,17,R20,12,A20,19,D20,0\H,17,R

 Normal termination of Gaussian 16 at Sat Jun 11 01:27:38 2022.
