 Gaussian 16, Revision A.03,
 Gaussian 16:  ES64L-G16RevA.03 25-Dec-2016

 --------------------------
 # sp B3LYP/Def2TZVP NoSymm
 --------------------------

 ----------------------------------
 int_initalOptXYZ_aligned_AlignedSp
 ----------------------------------
 Symbolic Z-matrix:
 Charge =  0 Multiplicity = 1

                          Input orientation:
 ---------------------------------------------------------------------
 Center     Atomic      Atomic             Coordinates (Angstroms)
 Number     Number       Type             X           Y           Z
 ---------------------------------------------------------------------
      1          6           0       -1.429748   -1.074656    0.688189
      2          6           0        0.214131    2.299999    1.176437
      3          6           0        1.301689    1.519138   -0.684104
      4          6           0        1.264448    1.559259    0.779082
      5          1           0        2.045968    0.992170   -1.264360
      6          1           0        1.977340    1.065723    1.424493
      7          6           0       -0.512087    2.812687   -0.033152
      8          1           0       -1.564741    2.504390   -0.051188
      9          1           0       -0.524327    3.909464   -0.063761
     10          1           0        0.038895    2.397847   -2.215852
     11          1           0       -0.072646    2.520403    2.194053
     12          8           0        0.083451   -1.907857   -2.287884
     13          8           0        0.269808   -1.966356    2.177002
     14          6           0       -0.255545   -1.705062   -1.165516
     15          6           0       -0.161577   -1.735143    1.092407
     16          1           0       -2.247922   -0.665524   -1.293332
     17          6           0        0.273795    2.235096   -1.174400
     18          6           0       -1.484802   -1.056939   -0.639795
     19          1           0       -2.135162   -0.701070    1.413027
     20          8           0        0.511774   -2.091011   -0.071346
 ---------------------------------------------------------------------

 SCF Done:  E(RB3LYP) =  -573.628846595     A.U. after   14 cycles

 Alpha  occ. eigenvalues --  -19.20454 -19.15296 -19.15292 -10.33543 -10.33538
 Alpha  occ. eigenvalues --  -10.23795 -10.23703 -10.19006 -10.18050 -10.18032
 Alpha  occ. eigenvalues --  -10.17955 -10.17923  -1.15447  -1.09390  -1.05474
 Alpha  occ. eigenvalues --   -0.87100  -0.85815  -0.71844  -0.71735  -0.70930
 Alpha  occ. eigenvalues --   -0.64481  -0.60760  -0.56495  -0.54230  -0.52809
 Alpha  occ. eigenvalues --   -0.52642  -0.51311  -0.49058  -0.47664  -0.45556
 Alpha  occ. eigenvalues --   -0.45182  -0.43253  -0.42440  -0.41139  -0.39047
 Alpha  occ. eigenvalues --   -0.37323  -0.37307  -0.35219  -0.33619  -0.33256
 Alpha  occ. eigenvalues --   -0.31633  -0.30457  -0.23742
 Alpha virt. eigenvalues --   -0.11802  -0.03900   0.01386   0.02369   0.03636
 Alpha virt. eigenvalues --    0.05486   0.05643   0.06092   0.06394   0.07498
 Alpha virt. eigenvalues --    0.08937   0.09647   0.10008   0.10168   0.12722

 Mulliken charges:
               1
     1  C   -0.133540
     2  C   -0.193447
     3  C   -0.123188
     4  C   -0.118503
     5  H    0.129936
     6  H    0.130045
     7  C   -0.081304
     8  H    0.098799
     9  H    0.119419
    10  H    0.121493
    11  H    0.120282
    12  O   -0.225962
    13  O   -0.226632
    14  C    0.307081
    15  C    0.308447
    16  H    0.150888
    17  C   -0.188154
    18  C   -0.135038
    19  H    0.150567
    20  O   -0.211190
 Sum of Mulliken charges =  -0.00000

 Dipole moment (field-independent basis, Debye):
    X=             -3.6431    Y=              2.8032    Z=              0.1641  Tot=              4.5996
 Quadrupole moment (field-independent basis, Debye-Ang):
   XX=            -63.4672   YY=            -73.4233   ZZ=            -77.5145
   XY=              2.0880   XZ=             -0.4133   YZ=             -0.2446

 Normal termination of Gaussian 16 at Sun Jun 12 01:13:53 2022.
