 Gaussian 16, Revision A.03,
 Gaussian 16:  ES64L-G16RevA.03 25-Dec-2016

 ----------------------------------------------------------------------
 # Opt=(Z-matrix, MaxStep=10) B3LYP/Def2TZVP geom=allcheckpoint guess=r
 ead Field=read NoSymm freq=noraman pop=none
 ----------------------------------------------------------------------

 Structure from the checkpoint file:  "checkpoint.chk"
 ------------------
 int_zmat_initalOpt
 ------------------
 Charge =  0 Multiplicity = 1

 SCF Done:  E(RB3LYP) =  -289.049191312     A.U. after    9 cycles
 SCF Done:  E(RB3LYP) =  -289.049026005     A.U. after   10 cycles
 SCF Done:  E(RB3LYP) =  -289.049213715     A.U. after    9 cycles
 SCF Done:  E(RB3LYP) =  -289.049216022     A.U. after    8 cycles
 Optimization completed.
    -- Stationary point found.
 Normal termination of Gaussian 16 at Fri Jun 10 11:24:33 2022.

 --------------------------------------------------------------------
 #N Geom=AllCheck Guess=TCheck SCRF=Check GenChk RB3LYP/def2TZVP Freq
 --------------------------------------------------------------------

 Structure from the checkpoint file:  "checkpoint.chk"
 ------------------
 int_zmat_initalOpt
 ------------------
 Charge =  0 Multiplicity = 1

                          Input orientation:
 ---------------------------------------------------------------------
 Center     Atomic      Atomic             Coordinates (Angstroms)
 Number     Number       Type             X           Y           Z
 ---------------------------------------------------------------------
      1          7           0        0.000000    0.000000    0.000000
      2          6           0        0.000000    0.000000    1.522284
      3          8           0        1.278455    0.000000   -0.454262
      4          6           0       -0.692358    1.240538   -0.474147
      5          6           0       -0.727736   -1.195694   -0.538636
      6          6           0        0.801232   -1.146491    2.103214
      7          1           0        0.464654    0.949597    1.781680
      8          1           0       -1.037372    0.001937    1.872841
      9          1           0       -0.654481    1.230026   -1.559310
     10          1           0       -0.117404    2.085068   -0.106058
     11          1           0       -1.725367    1.281088   -0.119212
     12          1           0       -0.174728   -2.079219   -0.239435
     13          1           0       -0.701728   -1.115021   -1.621037
     14          1           0       -1.757753   -1.232313   -0.175524
     15          1           0        1.760698   -1.197256    1.590297
     16          1           0        0.291624   -2.106470    2.007722
     17          1           0        0.972320   -0.964483    3.166327
 ---------------------------------------------------------------------

 SCF Done:  E(RB3LYP) =  -289.049216022     A.U. after    1 cycles

 Isotropic polarizability for W=    0.000000       64.77 Bohr**3.
 End of Minotr F.D. properties file   721 does not exist.

                      1                      2                      3
                      A                      A                      A
 Frequencies --    111.4370               205.6948               241.2571
 Red. masses --      1.8384                 1.0703                 1.1707
 Frc consts  --      0.0135                 0.0267                 0.0401
 IR Inten    --      2.4563                 2.1231                 2.8603

                      4                      5                      6
                      A                      A                      A
 Frequencies --    278.1701               280.7094               368.2936
 Red. masses --      1.2767                 1.7841                 2.6706
 Frc consts  --      0.0582                 0.0828                 0.2134
 IR Inten    --      0.2043                 2.5667                10.5165

                      7                      8                      9
                      A                      A                      A
 Frequencies --    394.6608               434.6652               484.3328
 Red. masses --      2.7431                 2.5097                 3.3466
 Frc consts  --      0.2517                 0.2794                 0.4625
 IR Inten    --      5.0878                 9.1499                11.3159

                     10                     11                     12
                      A                      A                      A
 Frequencies --    540.1499               704.7020               797.2308
 Red. masses --      3.2107                 3.2809                 1.2441
 Frc consts  --      0.5519                 0.9600                 0.4659
 IR Inten    --      7.2428                 1.1621                 1.4749

                     13                     14                     15
                      A                      A                      A
 Frequencies --    885.7194               925.9785               944.7157
 Red. masses --      2.3419                 1.9758                 4.5604
 Frc consts  --      1.0824                 0.9981                 2.3981
 IR Inten    --      3.5180                 1.4900                30.7338

                     16                     17                     18
                      A                      A                      A
 Frequencies --   1003.4419              1073.6314              1111.5980
 Red. masses --      1.7899                 1.4166                 1.7071
 Frc consts  --      1.0619                 0.9620                 1.2428
 IR Inten    --      4.2431                 0.9742                 1.3743

                     19                     20                     21
                      A                      A                      A
 Frequencies --   1132.6010              1203.6771              1232.4746
 Red. masses --      1.4602                 1.8104                 2.1310
 Frc consts  --      1.1036                 1.5454                 1.9072
 IR Inten    --      1.9343                 6.3423                 0.5072

                     22                     23                     24
                      A                      A                      A
 Frequencies --   1256.9567              1323.6210              1379.9589
 Red. masses --      1.9130                 1.2717                 1.2310
 Frc consts  --      1.7807                 1.3127                 1.3812
 IR Inten    --      1.9142                 4.0923                 2.1712

                     25                     26                     27
                      A                      A                      A
 Frequencies --   1400.7716              1415.2344              1445.8477
 Red. masses --      1.2889                 1.1711                 1.2065
 Frc consts  --      1.4900                 1.3820                 1.4860
 IR Inten    --     13.5662                 2.2318                 2.7397

                     28                     29                     30
                      A                      A                      A
 Frequencies --   1458.9208              1475.1010              1480.1080
 Red. masses --      1.0583                 1.0579                 1.0528
 Frc consts  --      1.3272                 1.3563                 1.3589
 IR Inten    --      1.1398                 1.3078                 9.2479

                     31                     32                     33
                      A                      A                      A
 Frequencies --   1485.4720              1492.8533              1506.7685
 Red. masses --      1.0727                 1.0548                 1.0499
 Frc consts  --      1.3946                 1.3850                 1.4044
 IR Inten    --      9.1770                12.5805                15.1905

                     34                     35                     36
                      A                      A                      A
 Frequencies --   1513.3041              3014.4926              3028.5724
 Red. masses --      1.0527                 1.0653                 1.0444
 Frc consts  --      1.4204                 5.7035                 5.6439
 IR Inten    --      1.5757                20.4276                18.0894

                     37                     38                     39
                      A                      A                      A
 Frequencies --   3038.6092              3043.1856              3088.4197
 Red. masses --      1.0374                 1.0446                 1.0999
 Frc consts  --      5.6433                 5.6999                 6.1815
 IR Inten    --     36.5449                84.4658                15.7782

                     40                     41                     42
                      A                      A                      A
 Frequencies --   3112.0193              3131.2488              3139.5958
 Red. masses --      1.0955                 1.1013                 1.0902
 Frc consts  --      6.2512                 6.3618                 6.3313
 IR Inten    --     20.7515                 3.4056                 8.0436

                     43                     44                     45
                      A                      A                      A
 Frequencies --   3148.9228              3173.6751              3183.8732
 Red. masses --      1.0903                 1.1066                 1.1056
 Frc consts  --      6.3699                 6.5670                 6.6033
 IR Inten    --     10.5067                 4.9021                 4.5059

 - Thermochemistry -
 -------------------
 Temperature   298.150 Kelvin.  Pressure   1.00000 Atm.
 Atom     1 has atomic number  7 and mass  14.00307

 Molecular mass:    89.08406 amu.
 Principal axes and moments of inertia in atomic units:
                           1         2         3
     Eigenvalues --   364.71965 650.45124 674.53040
           X            0.33076   0.13546   0.93394
           Y           -0.45292   0.89101   0.03117
           Z            0.82792   0.43331  -0.35607
 This molecule is an asymmetric top.
 Rotational symmetry number  1.
 Rotational temperatures (Kelvin)      0.23748     0.13316     0.12841
 Rotational constants (GHZ):           4.94830     2.77460     2.67555
 Zero-point vibrational energy     401303.3 (Joules/Mol)
                                   95.91379 (Kcal/Mol)
 Warning -- explicit consideration of  10 degrees of freedom as
           vibrations may cause significant error
 Vibrational temperatures:    160.33   295.95   347.12   400.22   403.88
          (Kelvin)            529.89   567.83   625.39   696.85   777.16
                             1013.91  1147.04  1274.35  1332.28  1359.24
                             1443.73  1544.72  1599.34  1629.56  1731.82
                             1773.26  1808.48  1904.40  1985.45  2015.40
                             2036.21  2080.25  2099.06  2122.34  2129.55
                             2137.26  2147.88  2167.90  2177.31  4337.18
                             4357.44  4371.88  4378.47  4443.55  4477.50
                             4505.17  4517.18  4530.60  4566.21  4580.88

 Zero-point correction=                           0.152848 (Hartree/Particle)
 Thermal correction to Energy=                    0.160274
 Thermal correction to Enthalpy=                  0.161218
 Thermal correction to Gibbs Free Energy=         0.122360
 Sum of electronic and zero-point Energies=           -288.896368
 Sum of electronic and thermal Energies=              -288.888942
 Sum of electronic and thermal Enthalpies=            -288.887998
 Sum of electronic and thermal Free Energies=         -288.926856

                     E (Thermal)             CV                S
                      KCal/Mol        Cal/Mol-Kelvin    Cal/Mol-Kelvin
 Total                  100.573             27.551             81.783
 Electronic               0.000              0.000              0.000
 Translational            0.889              2.981             39.373
 Rotational               0.889              2.981             26.573
 Vibrational             98.796             21.589             15.836
 Vibration     1          0.607              1.940              3.244
 Vibration     2          0.640              1.832              2.082
 Vibration     3          0.658              1.777              1.794
 Vibration     4          0.679              1.714              1.545
 Vibration     5          0.680              1.709              1.529
 Vibration     6          0.741              1.537              1.087
 Vibration     7          0.762              1.482              0.982
 Vibration     8          0.795              1.395              0.844
 Vibration     9          0.840              1.285              0.698
 Vibration    10          0.895              1.161              0.565

                       ! Non-Optimized Parameters !
 Normal termination of Gaussian 16 at Fri Jun 10 11:28:49 2022.
