 Gaussian 16, Revision A.03,
 Gaussian 16:  ES64L-G16RevA.03 25-Dec-2016

 ----------------------------------------------------------------------
 # Opt=(TS, CalcFC, noeigentest, Z-matrix, MaxStep=10) geom=allcheckpoi
 nt guess=read Field=read NoSymm B3LYP/Def2TZVP freq=noraman pop=none
 ----------------------------------------------------------------------

 Structure from the checkpoint file:  "checkpoint.chk"
 -----------------
 ts_zmat_initalOpt
 -----------------
 Charge =  0 Multiplicity = 1

 SCF Done:  E(RB3LYP) =  -289.018006975     A.U. after   10 cycles
 SCF Done:  E(RB3LYP) =  -289.018011973     A.U. after    9 cycles
 Optimization completed.
    -- Stationary point found.
 Normal termination of Gaussian 16 at Fri Jun 10 11:29:31 2022.

 --------------------------------------------------------------------
 #N Geom=AllCheck Guess=TCheck SCRF=Check GenChk RB3LYP/def2TZVP Freq
 --------------------------------------------------------------------

 Structure from the checkpoint file:  "checkpoint.chk"
 -----------------
 ts_zmat_initalOpt
 -----------------
 Charge =  0 Multiplicity = 1

                          Input orientation:
 ---------------------------------------------------------------------
 Center     Atomic      Atomic             Coordinates (Angstroms)
 Number     Number       Type             X           Y           Z
 ---------------------------------------------------------------------
      1          7           0        0.000000    0.000000    0.000000
      2          8           0        0.000000    0.000000    1.339809
      3          6           0        1.361052    0.000000   -0.546273
      4          6           0       -0.848380   -1.058584   -0.545075
      5          1           0        1.866333   -0.939963   -0.309987
      6          1           0        1.912154    0.818817   -0.091498
      7          1           0        1.323788    0.136620   -1.628437
      8          1           0       -1.837394   -0.966354   -0.101150
      9          1           0       -0.436968   -2.041980   -0.298963
     10          1           0       -0.917051   -0.952631   -1.629817
     11          6           0       -0.874379    1.817114   -0.376179
     12          6           0       -1.101205    2.234818    0.946085
     13          1           0       -0.053843    2.232301   -0.948372
     14          1           0       -1.688389    1.436504   -0.982827
     15          1           0       -0.548427    1.122859    1.492813
     16          1           0       -2.124764    2.236681    1.309364
     17          1           0       -0.492758    3.045809    1.332811
 ---------------------------------------------------------------------

 SCF Done:  E(RB3LYP) =  -289.018011973     A.U. after    1 cycles

 Isotropic polarizability for W=    0.000000       71.28 Bohr**3.
 End of Minotr F.D. properties file   721 does not exist.

 ******    1 imaginary frequencies (negative Signs) ******

                      1                      2                      3
                      A                      A                      A
 Frequencies --  -1123.6120               116.8467               223.2287
 Red. masses --      1.2780                 2.2583                 1.1467
 Frc consts  --      0.9506                 0.0182                 0.0337
 IR Inten    --    274.4636                 0.1022                 0.1708

                      4                      5                      6
                      A                      A                      A
 Frequencies --    235.8631               245.5279               276.6997
 Red. masses --      1.9432                 1.1068                 2.6440
 Frc consts  --      0.0637                 0.0393                 0.1193
 IR Inten    --      0.0313                 1.8368                19.7509

                      7                      8                      9
                      A                      A                      A
 Frequencies --    380.6464               426.4042               495.5253
 Red. masses --      2.7716                 2.9624                 3.2788
 Frc consts  --      0.2366                 0.3174                 0.4743
 IR Inten    --     29.4468                23.8121                 8.8208

                     10                     11                     12
                      A                      A                      A
 Frequencies --    535.9456               568.6534               634.0739
 Red. masses --      1.1303                 3.1783                 5.4611
 Frc consts  --      0.1913                 0.6055                 1.2936
 IR Inten    --      2.0978                 6.1537                 7.6002

                     13                     14                     15
                      A                      A                      A
 Frequencies --    817.9463               864.6841               923.5310
 Red. masses --      1.0871                 4.2843                 1.1123
 Frc consts  --      0.4285                 1.8873                 0.5590
 IR Inten    --      1.9876                28.4580                 2.5852

                     16                     17                     18
                      A                      A                      A
 Frequencies --    997.2761              1013.1782              1070.3166
 Red. masses --      1.2981                 1.5558                 1.1719
 Frc consts  --      0.7607                 0.9410                 0.7910
 IR Inten    --     18.0484                 1.8636                 4.9709

                     19                     20                     21
                      A                      A                      A
 Frequencies --   1085.5630              1101.7715              1198.8509
 Red. masses --      2.0499                 1.2378                 1.6091
 Frc consts  --      1.4233                 0.8853                 1.3626
 IR Inten    --     44.6942                 0.4258                 1.2520

                     22                     23                     24
                      A                      A                      A
 Frequencies --   1234.3937              1259.6853              1263.3067
 Red. masses --      1.4633                 2.9945                 2.1478
 Frc consts  --      1.3137                 2.7996                 2.0195
 IR Inten    --      1.6032                 3.2722                59.2934

                     25                     26                     27
                      A                      A                      A
 Frequencies --   1313.9372              1318.8855              1427.0638
 Red. masses --      1.9831                 1.1275                 1.1744
 Frc consts  --      2.0172                 1.1555                 1.4092
 IR Inten    --     97.3469                26.2392                 0.7171

                     28                     29                     30
                      A                      A                      A
 Frequencies --   1452.6164              1470.0330              1472.0567
 Red. masses --      1.1907                 1.1041                 1.0486
 Frc consts  --      1.4803                 1.4057                 1.3388
 IR Inten    --      3.5110                 2.0993                 1.8392

                     31                     32                     33
                      A                      A                      A
 Frequencies --   1486.6463              1492.2368              1507.4313
 Red. masses --      1.0472                 1.0476                 1.0625
 Frc consts  --      1.3637                 1.3744                 1.4225
 IR Inten    --      9.0336                 5.2926                 4.9685

                     34                     35                     36
                      A                      A                      A
 Frequencies --   1542.4120              1693.0878              3017.1513
 Red. masses --      1.4812                 1.0610                 1.0359
 Frc consts  --      2.0762                 1.7919                 5.5563
 IR Inten    --     29.2039                28.3842                41.0971

                     37                     38                     39
                      A                      A                      A
 Frequencies --   3030.3953              3081.1899              3095.6538
 Red. masses --      1.0367                 1.1014                 1.1022
 Frc consts  --      5.6091                 6.1606                 6.2231
 IR Inten    --     51.7795                15.9844                25.7093

                     40                     41                     42
                      A                      A                      A
 Frequencies --   3100.7599              3121.3396              3129.8770
 Red. masses --      1.0535                 1.0604                 1.1010
 Frc consts  --      5.9677                 6.0873                 6.3548
 IR Inten    --     17.8046                21.9965                15.3380

                     43                     44                     45
                      A                      A                      A
 Frequencies --   3150.2659              3170.1932              3202.6273
 Red. masses --      1.1012                 1.1121                 1.1152
 Frc consts  --      6.4388                 6.5851                 6.7395
 IR Inten    --      5.1443                 2.2532                22.2919

 - Thermochemistry -
 -------------------
 Temperature   298.150 Kelvin.  Pressure   1.00000 Atm.
 Atom     1 has atomic number  7 and mass  14.00307

 Molecular mass:    89.08406 amu.
 Principal axes and moments of inertia in atomic units:
                           1         2         3
     Eigenvalues --   375.31361 713.46061 727.08160
           X           -0.42181   0.89420   0.14998
           Y            0.85561   0.44730  -0.26051
           Z            0.30003  -0.01844   0.95375
 This molecule is an asymmetric top.
 Rotational symmetry number  1.
 Rotational temperatures (Kelvin)      0.23078     0.12140     0.11913
 Rotational constants (GHZ):           4.80862     2.52956     2.48217
    1 imaginary frequencies ignored.
 Zero-point vibrational energy     384275.1 (Joules/Mol)
                                   91.84395 (Kcal/Mol)
 Warning -- explicit consideration of  10 degrees of freedom as
           vibrations may cause significant error
 Vibrational temperatures:    168.12   321.18   339.35   353.26   398.11
          (Kelvin)            547.67   613.50   712.95   771.11   818.17
                              912.29  1176.84  1244.09  1328.76  1434.86
                             1457.74  1539.95  1561.88  1585.20  1724.88
                             1776.02  1812.41  1817.62  1890.46  1897.58
                             2053.23  2089.99  2115.05  2117.96  2138.95
                             2147.00  2168.86  2219.19  2435.98  4341.01
                             4360.06  4433.15  4453.96  4461.30  4490.91
                             4503.19  4532.53  4561.20  4607.87

 Zero-point correction=                           0.146363 (Hartree/Particle)
 Thermal correction to Energy=                    0.153692
 Thermal correction to Enthalpy=                  0.154636
 Thermal correction to Gibbs Free Energy=         0.115869
 Sum of electronic and zero-point Energies=           -288.871649
 Sum of electronic and thermal Energies=              -288.864320
 Sum of electronic and thermal Enthalpies=            -288.863376
 Sum of electronic and thermal Free Energies=         -288.902142

                     E (Thermal)             CV                S
                      KCal/Mol        Cal/Mol-Kelvin    Cal/Mol-Kelvin
 Total                   96.443             27.338             81.591
 Electronic               0.000              0.000              0.000
 Translational            0.889              2.981             39.373
 Rotational               0.889              2.981             26.768
 Vibrational             94.666             21.377             15.450
 Vibration     1          0.608              1.935              3.152
 Vibration     2          0.649              1.806              1.933
 Vibration     3          0.655              1.786              1.834
 Vibration     4          0.660              1.770              1.762
 Vibration     5          0.678              1.717              1.554
 Vibration     6          0.750              1.511              1.037
 Vibration     7          0.788              1.413              0.870
 Vibration     8          0.851              1.260              0.669
 Vibration     9          0.891              1.171              0.574
 Vibration    10          0.925              1.099              0.507

 Optimization completed.
    -- Stationary point found.
 Normal termination of Gaussian 16 at Fri Jun 10 11:34:15 2022.
