 Gaussian 16, Revision A.03,
 Gaussian 16:  ES64L-G16RevA.03 25-Dec-2016

 ----------------------------------------------------------------------
 # Opt=(TS, CalcFC, noeigentest, Z-matrix, MaxStep=10) geom=allcheckpoi
 nt guess=read Field=read NoSymm B3LYP/Def2TZVP freq=noraman pop=none
 ----------------------------------------------------------------------

 Structure from the checkpoint file:  "checkpoint.chk"
 -----------------
 ts_zmat_initalOpt
 -----------------
 Charge =  0 Multiplicity = 1

 SCF Done:  E(RB3LYP) =  -195.280449430     A.U. after   11 cycles
 SCF Done:  E(RB3LYP) =  -195.280464763     A.U. after   10 cycles
 Optimization completed.
    -- Stationary point found.
 Normal termination of Gaussian 16 at Fri Jun 10 23:20:00 2022.

 --------------------------------------------------------------------
 #N Geom=AllCheck Guess=TCheck SCRF=Check GenChk RB3LYP/def2TZVP Freq
 --------------------------------------------------------------------

 Structure from the checkpoint file:  "checkpoint.chk"
 -----------------
 ts_zmat_initalOpt
 -----------------
 Charge =  0 Multiplicity = 1

                          Input orientation:
 ---------------------------------------------------------------------
 Center     Atomic      Atomic             Coordinates (Angstroms)
 Number     Number       Type             X           Y           Z
 ---------------------------------------------------------------------
      1          1           0        0.000000    0.000000    0.000000
      2          6           0        0.000000    0.000000    1.086068
      3          1           0        0.960646    0.000000    1.572652
      4          6           0       -1.154951    0.232470    1.793120
      5          1           0       -1.967059    0.749335    1.273423
      6          6           0       -1.453881   -0.140638    3.095250
      7          1           0       -2.145919    0.466886    3.671005
      8          6           0       -0.888692   -1.367055    3.768300
      9          1           0       -1.097417   -1.283578    4.840424
     10          1           0       -1.349329   -2.290817    3.411365
     11          6           0        0.535907   -1.266170    3.497517
     12          1           0        1.100078   -0.464922    3.952446
     13          1           0        1.065862   -1.969912    2.874438
 ---------------------------------------------------------------------

 SCF Done:  E(RB3LYP) =  -195.280464763     A.U. after    1 cycles

 Isotropic polarizability for W=    0.000000       74.58 Bohr**3.
 End of Minotr F.D. properties file   721 does not exist.

 ******    1 imaginary frequencies (negative Signs) ******

                      1                      2                      3
                      A                      A                      A
 Frequencies --   -422.4101               218.9022               259.3263
 Red. masses --      1.9574                 2.2275                 2.2560
 Frc consts  --      0.2058                 0.0629                 0.0894
 IR Inten    --      0.3467                 0.2707                 1.2533

                      4                      5                      6
                      A                      A                      A
 Frequencies --    368.8357               546.6890               591.1019
 Red. masses --      2.2501                 1.2891                 1.3373
 Frc consts  --      0.1803                 0.2270                 0.2753
 IR Inten    --      6.0527                 9.8505                 2.8532

                      7                      8                      9
                      A                      A                      A
 Frequencies --    655.1907               702.8857               746.3669
 Red. masses --      1.5223                 1.2753                 1.2911
 Frc consts  --      0.3850                 0.3712                 0.4238
 IR Inten    --      8.6064                63.2924                29.8105

                     10                     11                     12
                      A                      A                      A
 Frequencies --    782.2710               828.4882               889.7661
 Red. masses --      1.3789                 1.4966                 1.4956
 Frc consts  --      0.4971                 0.6052                 0.6976
 IR Inten    --     12.9985                10.8204                 5.4772

                     13                     14                     15
                      A                      A                      A
 Frequencies --    927.4252              1027.9689              1061.2630
 Red. masses --      1.8542                 1.5663                 1.6535
 Frc consts  --      0.9397                 0.9752                 1.0972
 IR Inten    --      4.8584                 0.0185                14.3741

                     16                     17                     18
                      A                      A                      A
 Frequencies --   1134.6519              1156.1969              1217.0225
 Red. masses --      2.0653                 2.0149                 1.2523
 Frc consts  --      1.5666                 1.5870                 1.0928
 IR Inten    --     18.7188                 0.8179                 7.7516

                     19                     20                     21
                      A                      A                      A
 Frequencies --   1266.2791              1308.7159              1398.9533
 Red. masses --      1.2591                 1.2987                 1.3544
 Frc consts  --      1.1895                 1.3106                 1.5617
 IR Inten    --     19.1849                 6.4551                 2.2056

                     22                     23                     24
                      A                      A                      A
 Frequencies --   1423.7237              1483.0019              1498.6026
 Red. masses --      1.1149                 1.2945                 1.4115
 Frc consts  --      1.3315                 1.6774                 1.8677
 IR Inten    --     13.5757                 8.2108                 1.0130

                     25                     26                     27
                      A                      A                      A
 Frequencies --   1588.3614              3018.6682              3043.5260
 Red. masses --      4.0920                 1.0582                 1.0820
 Frc consts  --      6.0826                 5.6811                 5.9050
 IR Inten    --     30.5990                 7.9120                36.0101

                     28                     29                     30
                      A                      A                      A
 Frequencies --   3065.0521              3120.1985              3143.2945
 Red. masses --      1.1024                 1.0664                 1.0881
 Frc consts  --      6.1020                 6.1171                 6.3344
 IR Inten    --     14.0629                34.6249                 7.6813

                     31                     32                     33
                      A                      A                      A
 Frequencies --   3167.0011              3252.2650              3270.8437
 Red. masses --      1.0516                 1.1015                 1.1190
 Frc consts  --      6.2144                 6.8643                 7.0534
 IR Inten    --      4.1381                11.6519                 1.8485

 - Thermochemistry -
 -------------------
 Temperature   298.150 Kelvin.  Pressure   1.00000 Atm.
 Atom     1 has atomic number  1 and mass   1.00783

 Molecular mass:    68.06260 amu.
 Principal axes and moments of inertia in atomic units:
                           1         2         3
     Eigenvalues --   211.69447 403.34164 566.73342
           X            0.06496   0.93091   0.35942
           Y           -0.50898  -0.27889   0.81435
           Z            0.85833  -0.23584   0.45570
 This molecule is an asymmetric top.
 Rotational symmetry number  1.
 Rotational temperatures (Kelvin)      0.40915     0.21474     0.15283
 Rotational constants (GHZ):           8.52522     4.47447     3.18446
    1 imaginary frequencies ignored.
 Zero-point vibrational energy     288077.8 (Joules/Mol)
                                   68.85224 (Kcal/Mol)
 Warning -- explicit consideration of   5 degrees of freedom as
           vibrations may cause significant error
 Vibrational temperatures:    314.95   373.11   530.67   786.56   850.46
          (Kelvin)            942.67  1011.30  1073.86  1125.51  1192.01
                             1280.17  1334.36  1479.02  1526.92  1632.51
                             1663.51  1751.02  1821.89  1882.95  2012.78
                             2048.42  2133.71  2156.15  2285.30  4343.19
                             4378.96  4409.93  4489.27  4522.50  4556.61
                             4679.28  4706.01

 Zero-point correction=                           0.109723 (Hartree/Particle)
 Thermal correction to Energy=                    0.115027
 Thermal correction to Enthalpy=                  0.115971
 Thermal correction to Gibbs Free Energy=         0.081897
 Sum of electronic and zero-point Energies=           -195.170742
 Sum of electronic and thermal Energies=              -195.165437
 Sum of electronic and thermal Enthalpies=            -195.164493
 Sum of electronic and thermal Free Energies=         -195.198567

                     E (Thermal)             CV                S
                      KCal/Mol        Cal/Mol-Kelvin    Cal/Mol-Kelvin
 Total                   72.181             20.069             71.715
 Electronic               0.000              0.000              0.000
 Translational            0.889              2.981             38.571
 Rotational               0.889              2.981             25.385
 Vibrational             70.403             14.108              7.759
 Vibration     1          0.647              1.812              1.968
 Vibration     2          0.668              1.747              1.666
 Vibration     3          0.741              1.536              1.085
 Vibration     4          0.902              1.147              0.551
 Vibration     5          0.949              1.051              0.465

 Optimization completed.
    -- Stationary point found.
 Normal termination of Gaussian 16 at Fri Jun 10 23:22:48 2022.
