 Gaussian 16, Revision A.03,
 Gaussian 16:  ES64L-G16RevA.03 25-Dec-2016

 ----------------------------------------------------------------------
 # Opt=(TS, CalcFC, noeigentest, Z-matrix, MaxStep=10) geom=allcheckpoi
 nt guess=read Field=read NoSymm B3LYP/Def2TZVP freq=noraman pop=none
 ----------------------------------------------------------------------

 Structure from the checkpoint file:  "checkpoint.chk"
 -----------------
 ts_zmat_initalOpt
 -----------------
 Charge =  0 Multiplicity = 1

 SCF Done:  E(RB3LYP) =  -439.156061391     A.U. after   11 cycles
 SCF Done:  E(RB3LYP) =  -439.156079231     A.U. after   13 cycles
 SCF Done:  E(RB3LYP) =  -439.156080983     A.U. after    9 cycles
 SCF Done:  E(RB3LYP) =  -439.156081200     A.U. after    7 cycles
 SCF Done:  E(RB3LYP) =  -439.156081279     A.U. after    7 cycles
 Optimization completed.
    -- Stationary point found.

 1\1\GINC-BHC0034\FTS\RB3LYP\def2TZVP\C8H7N1O1\DHANAWAY\11-Jun-2022\1\\
 # Opt=(TS, CalcFC, noeigentest, Z-matrix, MaxStep=10) geom=allcheckpoi
 nt guess=read Field=read NoSymm B3LYP/Def2TZVP freq=noraman pop=none\\
 ts_zmat_initalOpt\\0,1\H\N,1,R2\C,2,R3,1,A3\C,2,R4,1,A4,3,D4,0\H,3,R5,
 2,A5,1,D5,0\C,3,R6,2,A6,5,D6,0\C,4,R7,2,A7,1,D7,0\C,4,R8,2,A8,7,D8,0\H
 ,6,R9,3,A9,2,D9,0\H,8,R10,4,A10,2,D10,0\H,7,R11,4,A11,2,D11,0\C,8,R12,
 4,A12,10,D12,0\H,12,R13,8,A13,4,D13,0\C,12,R14,8,A14,13,D14,0\H,14,R15
 ,12,A15,8,D15,0\C,14,R16,12,A16,15,D16,0\O,16,R17,14,A17,12,D17,0\\R2=

 Normal termination of Gaussian 16 at Sat Jun 11 01:05:57 2022.

 --------------------------------------------------------------------
 #N Geom=AllCheck Guess=TCheck SCRF=Check GenChk RB3LYP/def2TZVP Freq
 --------------------------------------------------------------------

 Structure from the checkpoint file:  "checkpoint.chk"
 -----------------
 ts_zmat_initalOpt
 -----------------
 Charge =  0 Multiplicity = 1

                          Input orientation:
 ---------------------------------------------------------------------
 Center     Atomic      Atomic             Coordinates (Angstroms)
 Number     Number       Type             X           Y           Z
 ---------------------------------------------------------------------
      1          1           0        0.000000    0.000000    0.000000
      2          7           0        0.000000    0.000000    1.008550
      3          6           0        1.120779    0.000000    1.816946
      4          6           0       -1.126367    0.073670    1.762001
      5          1           0        2.108001   -0.042155    1.388105
      6          6           0        0.713348    0.050065    3.116382
      7          6           0       -0.723569    0.096372    3.115249
      8          6           0       -2.461826   -0.026008    1.276966
      9          1           0        1.362873    0.086299    3.974239
     10          1           0       -2.698333    0.281971    0.266917
     11          1           0       -1.299556    0.624212    3.862790
     12          6           0       -3.398942   -0.649035    2.036312
     13          1           0       -4.388675   -0.769041    1.610155
     14          6           0       -3.212015   -1.263791    3.315034
     15          1           0       -3.985212   -1.947726    3.659587
     16          6           0       -2.083396   -1.348839    4.074988
     17          8           0       -1.608085   -1.700436    5.100535
 ---------------------------------------------------------------------

 SCF Done:  E(RB3LYP) =  -439.156081279     A.U. after    1 cycles

 Isotropic polarizability for W=    0.000000      109.33 Bohr**3.
 End of Minotr F.D. properties file   721 does not exist.

 ******    1 imaginary frequencies (negative Signs) ******

                      1                      2                      3
                      A                      A                      A
 Frequencies --   -334.9946               106.4812               135.8793
 Red. masses --      6.9795                 5.8886                 4.5569
 Frc consts  --      0.4615                 0.0393                 0.0496
 IR Inten    --    179.1820                 3.0216                 3.3757

                      4                      5                      6
                      A                      A                      A
 Frequencies --    267.4989               282.3139               316.5191
 Red. masses --      4.7376                 3.4199                 7.5920
 Frc consts  --      0.1997                 0.1606                 0.4481
 IR Inten    --     23.7846                 4.2239                 8.3686

                      7                      8                      9
                      A                      A                      A
 Frequencies --    459.8725               513.5389               541.0720
 Red. masses --      4.6143                 4.5163                 2.6439
 Frc consts  --      0.5749                 0.7017                 0.4560
 IR Inten    --     18.6254                 1.7481                 0.7202

                     10                     11                     12
                      A                      A                      A
 Frequencies --    602.1233               608.7311               629.6951
 Red. masses --      1.6874                 3.5057                 1.8650
 Frc consts  --      0.3604                 0.7654                 0.4357
 IR Inten    --     21.4023                12.5453                13.8251

                     13                     14                     15
                      A                      A                      A
 Frequencies --    663.7218               706.0063               755.6988
 Red. masses --      1.7559                 2.7595                 1.3120
 Frc consts  --      0.4558                 0.8104                 0.4414
 IR Inten    --     64.8258                21.8606                80.1830

                     16                     17                     18
                      A                      A                      A
 Frequencies --    772.0556               790.9806               850.5551
 Red. masses --      1.7613                 2.0524                 4.3729
 Frc consts  --      0.6186                 0.7566                 1.8639
 IR Inten    --      2.5884                78.5013                40.5914

                     19                     20                     21
                      A                      A                      A
 Frequencies --    892.5598               895.6272               952.3168
 Red. masses --      1.4279                 4.2037                 1.3308
 Frc consts  --      0.6702                 1.9867                 0.7111
 IR Inten    --      0.0361                12.6514                 2.9145

                     22                     23                     24
                      A                      A                      A
 Frequencies --    976.7823               991.6810              1044.0890
 Red. masses --      2.1383                 2.4800                 1.3378
 Frc consts  --      1.2021                 1.4370                 0.8593
 IR Inten    --     18.2480                 3.4778                 6.2822

                     25                     26                     27
                      A                      A                      A
 Frequencies --   1101.7314              1126.5602              1146.8466
 Red. masses --      2.0494                 1.6432                 1.4163
 Frc consts  --      1.4656                 1.2287                 1.0975
 IR Inten    --     13.1008                11.5816                10.5926

                     28                     29                     30
                      A                      A                      A
 Frequencies --   1206.9234              1249.2115              1291.1633
 Red. masses --      1.1278                 1.9517                 1.7094
 Frc consts  --      0.9680                 1.7944                 1.6790
 IR Inten    --      6.1159                 0.9246                 2.5915

                     31                     32                     33
                      A                      A                      A
 Frequencies --   1394.0720              1415.1498              1438.2727
 Red. masses --      1.8148                 2.8137                 3.3952
 Frc consts  --      2.0780                 3.3200                 4.1381
 IR Inten    --      5.8692                 9.0717                48.0272

                     34                     35                     36
                      A                      A                      A
 Frequencies --   1461.4679              1523.2015              1599.8248
 Red. masses --      2.2251                 4.3392                 3.6453
 Frc consts  --      2.8001                 5.9316                 5.4970
 IR Inten    --      1.9109                 4.3109                33.4774

                     37                     38                     39
                      A                      A                      A
 Frequencies --   1608.2830              1944.7077              3105.0080
 Red. masses --      5.0915                12.6320                 1.0831
 Frc consts  --      7.7593                28.1469                 6.1523
 IR Inten    --     59.1286               811.5356                38.2874

                     40                     41                     42
                      A                      A                      A
 Frequencies --   3159.2990              3185.1464              3190.7068
 Red. masses --      1.0867                 1.0898                 1.0928
 Frc consts  --      6.3904                 6.5138                 6.5548
 IR Inten    --     15.8150                 1.1495                 4.5441

                     43                     44                     45
                      A                      A                      A
 Frequencies --   3252.2050              3270.3227              3613.1409
 Red. masses --      1.0909                 1.1049                 1.0810
 Frc consts  --      6.7984                 6.9622                 8.3149
 IR Inten    --      6.2129                 2.8376               130.4523

 - Thermochemistry -
 -------------------
 Temperature   298.150 Kelvin.  Pressure   1.00000 Atm.
 Atom     1 has atomic number  1 and mass   1.00783

 Molecular mass:   133.05276 amu.
 Principal axes and moments of inertia in atomic units:
                           1         2         3
     Eigenvalues --   830.057421382.651032116.81881
           X            0.78858   0.58589  -0.18676
           Y            0.35221  -0.18137   0.91818
           Z           -0.50408   0.78984   0.34938
 This molecule is an asymmetric top.
 Rotational symmetry number  1.
 Warning -- assumption of classical behavior for rotation
           may cause significant error
 Rotational temperatures (Kelvin)      0.10435     0.06264     0.04092
 Rotational constants (GHZ):           2.17424     1.30528     0.85257
    1 imaginary frequencies ignored.
 Zero-point vibrational energy     341169.3 (Joules/Mol)
                                   81.54141 (Kcal/Mol)
 Warning -- explicit consideration of  10 degrees of freedom as
           vibrations may cause significant error
 Vibrational temperatures:    153.20   195.50   384.87   406.19   455.40
          (Kelvin)            661.65   738.87   778.48   866.32   875.83
                              905.99   954.95  1015.79  1087.28  1110.82
                             1138.04  1223.76  1284.19  1288.61  1370.17
                             1405.37  1426.81  1502.21  1585.15  1620.87
                             1650.06  1736.49  1797.34  1857.70  2005.76
                             2036.08  2069.35  2102.73  2191.55  2301.79
                             2313.96  2798.00  4467.41  4545.53  4582.72
                             4590.72  4679.20  4705.26  5198.50

 Zero-point correction=                           0.129945 (Hartree/Particle)
 Thermal correction to Energy=                    0.137572
 Thermal correction to Enthalpy=                  0.138516
 Thermal correction to Gibbs Free Energy=         0.097517
 Sum of electronic and zero-point Energies=           -439.026137
 Sum of electronic and thermal Energies=              -439.018510
 Sum of electronic and thermal Enthalpies=            -439.017565
 Sum of electronic and thermal Free Energies=         -439.058564

                     E (Thermal)             CV                S
                      KCal/Mol        Cal/Mol-Kelvin    Cal/Mol-Kelvin
 Total                   86.327             30.463             86.289
 Electronic               0.000              0.000              0.000
 Translational            0.889              2.981             40.569
 Rotational               0.889              2.981             29.276
 Vibrational             84.550             24.502             16.444
 Vibration     1          0.605              1.944              3.332
 Vibration     2          0.614              1.918              2.861
 Vibration     3          0.673              1.733              1.612
 Vibration     4          0.681              1.706              1.520
 Vibration     5          0.703              1.642              1.328
 Vibration     6          0.818              1.339              0.766
 Vibration     7          0.869              1.220              0.625
 Vibration     8          0.896              1.159              0.563
 Vibration     9          0.960              1.027              0.446
 Vibration    10          0.968              1.013              0.435

 Optimization completed.
    -- Stationary point found.
 Normal termination of Gaussian 16 at Sat Jun 11 01:17:28 2022.
