 Gaussian 16, Revision A.03,
 Gaussian 16:  ES64L-G16RevA.03 25-Dec-2016

 ----------------------------------------------------------------------
 # Opt=(Z-matrix, MaxStep=10) B3LYP/Def2TZVP geom=allcheckpoint guess=r
 ead Field=read NoSymm freq=noraman pop=none
 ----------------------------------------------------------------------

 Structure from the checkpoint file:  "checkpoint.chk"
 ------------------
 int_zmat_initalOpt
 ------------------
 Charge =  0 Multiplicity = 1

 SCF Done:  E(RB3LYP) =  -269.423600404     A.U. after   10 cycles
 SCF Done:  E(RB3LYP) =  -269.423609650     A.U. after    8 cycles
 SCF Done:  E(RB3LYP) =  -269.423614171     A.U. after    8 cycles
 SCF Done:  E(RB3LYP) =  -269.423615920     A.U. after    8 cycles
 SCF Done:  E(RB3LYP) =  -269.423616613     A.U. after    8 cycles
 Optimization completed.
    -- Stationary point found.
 Normal termination of Gaussian 16 at Fri Jun 10 11:19:56 2022.

 --------------------------------------------------------------------
 #N Geom=AllCheck Guess=TCheck SCRF=Check GenChk RB3LYP/def2TZVP Freq
 --------------------------------------------------------------------

 Structure from the checkpoint file:  "checkpoint.chk"
 ------------------
 int_zmat_initalOpt
 ------------------
 Charge =  0 Multiplicity = 1

                          Input orientation:
 ---------------------------------------------------------------------
 Center     Atomic      Atomic             Coordinates (Angstroms)
 Number     Number       Type             X           Y           Z
 ---------------------------------------------------------------------
      1          6           0        0.000000    0.000000    0.000000
      2          6           0        0.000000    0.000000    1.335708
      3          6           0        1.268618    0.000000   -0.712437
      4          1           0       -0.924745    0.070053   -0.559333
      5          1           0       -0.908001    0.072746    1.919449
      6          1           0        1.315777   -0.107034   -1.786455
      7          6           0        2.381376    0.289493   -0.021021
      8          6           0        1.311943   -0.126660    2.054551
      9          1           0        3.347923    0.477969   -0.472016
     10          8           0        2.399936    0.479623    1.314012
     11          1           0        1.305906    0.377056    3.019001
     12          1           0        1.572535   -1.182846    2.222239
 ---------------------------------------------------------------------

 SCF Done:  E(RB3LYP) =  -269.423616613     A.U. after    1 cycles

 Isotropic polarizability for W=    0.000000       59.49 Bohr**3.
 End of Minotr F.D. properties file   721 does not exist.

                      1                      2                      3
                      A                      A                      A
 Frequencies --    164.4404               333.0507               502.1020
 Red. masses --      2.2300                 2.7113                 3.2744
 Frc consts  --      0.0355                 0.1772                 0.4864
 IR Inten    --      2.4318                12.7531                14.6975

                      4                      5                      6
                      A                      A                      A
 Frequencies --    571.8423               617.2984               723.7132
 Red. masses --      3.0659                 4.8614                 1.4821
 Frc consts  --      0.5907                 1.0914                 0.4574
 IR Inten    --     13.7227                 0.8212                52.7875

                      7                      8                      9
                      A                      A                      A
 Frequencies --    762.9599               859.0770               918.2825
 Red. masses --      1.3745                 3.8770                 1.3841
 Frc consts  --      0.4714                 1.6858                 0.6876
 IR Inten    --      9.3243                13.5858                 0.8072

                     10                     11                     12
                      A                      A                      A
 Frequencies --    951.3887               970.5425               977.6776
 Red. masses --      2.5297                 2.6037                 1.7671
 Frc consts  --      1.3491                 1.4450                 0.9952
 IR Inten    --      9.3956                23.1715                 3.1925

                     13                     14                     15
                      A                      A                      A
 Frequencies --    994.5399              1080.0005              1097.2186
 Red. masses --      2.0781                 2.2846                 1.9269
 Frc consts  --      1.2110                 1.5700                 1.3668
 IR Inten    --      4.7987                 4.2700                56.4650

                     16                     17                     18
                      A                      A                      A
 Frequencies --   1191.2341              1248.5787              1279.1137
 Red. masses --      1.1086                 1.4422                 1.1500
 Frc consts  --      0.9268                 1.3247                 1.1086
 IR Inten    --      0.7942                47.3190                11.8091

                     19                     20                     21
                      A                      A                      A
 Frequencies --   1370.7567              1417.6823              1449.2974
 Red. masses --      1.2138                 1.5432                 1.7714
 Frc consts  --      1.3438                 1.8274                 2.1922
 IR Inten    --      0.4395                 9.6391                 7.5689

                     22                     23                     24
                      A                      A                      A
 Frequencies --   1502.1904              1623.7855              1693.5962
 Red. masses --      1.1078                 5.7874                 5.4717
 Frc consts  --      1.4729                 8.9907                 9.2468
 IR Inten    --      2.6627                46.9032                29.1192

                     25                     26                     27
                      A                      A                      A
 Frequencies --   2946.8645              3112.3940              3170.8629
 Red. masses --      1.0736                 1.0897                 1.0862
 Frc consts  --      5.4931                 6.2195                 6.4345
 IR Inten    --     80.6788                10.9575                 5.7112

                     28                     29                     30
                      A                      A                      A
 Frequencies --   3178.3080              3197.2029              3208.9880
 Red. masses --      1.0886                 1.0959                 1.0972
 Frc consts  --      6.4791                 6.6005                 6.6570
 IR Inten    --     11.5197                 7.6585                19.5439

 - Thermochemistry -
 -------------------
 Temperature   298.150 Kelvin.  Pressure   1.00000 Atm.
 Atom     1 has atomic number  6 and mass  12.00000

 Molecular mass:    82.04186 amu.
 Principal axes and moments of inertia in atomic units:
                           1         2         3
     Eigenvalues --   323.87165 335.85606 633.69917
           X            0.92976  -0.33588  -0.15079
           Y            0.13671  -0.06533   0.98846
           Z            0.34185   0.93964   0.01482
 This molecule is an asymmetric top.
 Rotational symmetry number  1.
 Rotational temperatures (Kelvin)      0.26743     0.25789     0.13668
 Rotational constants (GHZ):           5.57240     5.37356     2.84795
 Zero-point vibrational energy     257884.9 (Joules/Mol)
                                   61.63597 (Kcal/Mol)
 Warning -- explicit consideration of   5 degrees of freedom as
           vibrations may cause significant error
 Vibrational temperatures:    236.59   479.19   722.41   822.75   888.15
          (Kelvin)           1041.26  1097.73  1236.02  1321.20  1368.84
                             1396.39  1406.66  1430.92  1553.88  1578.65
                             1713.92  1796.43  1840.36  1972.21  2039.73
                             2085.22  2161.32  2336.27  2436.71  4239.88
                             4478.04  4562.16  4572.88  4600.06  4617.02

 Zero-point correction=                           0.098223 (Hartree/Particle)
 Thermal correction to Energy=                    0.103201
 Thermal correction to Enthalpy=                  0.104145
 Thermal correction to Gibbs Free Energy=         0.070067
 Sum of electronic and zero-point Energies=           -269.325393
 Sum of electronic and thermal Energies=              -269.320416
 Sum of electronic and thermal Enthalpies=            -269.319471
 Sum of electronic and thermal Free Energies=         -269.353550

                     E (Thermal)             CV                S
                      KCal/Mol        Cal/Mol-Kelvin    Cal/Mol-Kelvin
 Total                   64.760             18.543             71.724
 Electronic               0.000              0.000              0.000
 Translational            0.889              2.981             39.128
 Rotational               0.889              2.981             25.736
 Vibrational             62.982             12.581              6.860
 Vibration     1          0.623              1.886              2.498
 Vibration     2          0.715              1.610              1.245
 Vibration     3          0.857              1.245              0.653
 Vibration     4          0.928              1.092              0.501
 Vibration     5          0.977              0.995              0.421

                       ! Non-Optimized Parameters !
 Normal termination of Gaussian 16 at Fri Jun 10 11:22:33 2022.
