 Gaussian 16, Revision A.03,
 Gaussian 16:  ES64L-G16RevA.03 25-Dec-2016

 ----------------------------------------------------------------------
 # Opt=(TS, CalcFC, noeigentest, Z-matrix, MaxStep=10) Field=read NoSym
 m B3LYP/Def2TZVP
 ----------------------------------------------------------------------

 -----------------
 ts_zmat_initalOpt
 -----------------
 Symbolic Z-matrix:
 Charge =  0 Multiplicity = 1

 SCF Done:  E(RB3LYP) =  -269.392760389     A.U. after   14 cycles

  Exact polarizability:   0.000   0.000   0.000   0.000   0.000   0.000
 Approx polarizability: 124.767 -11.574  97.334  11.271  33.873 110.244

 SCF Done:  E(RB3LYP) =  -269.392781301     A.U. after   10 cycles
 Optimization completed.
    -- Stationary point found.

                         Z-Matrix orientation:
 ---------------------------------------------------------------------
 Center     Atomic      Atomic             Coordinates (Angstroms)
 Number     Number       Type             X           Y           Z
 ---------------------------------------------------------------------
      1          1           0        0.000000    0.000000    0.000000
      2          6           0        0.000000    0.000000    1.082774
      3          6           0        1.193767    0.000000    1.789063
      4          6           0       -1.172492    0.207896    1.804462
      5          1           0        2.112735   -0.308166    1.299976
      6          6           0        1.288114    0.617006    3.043399
      7          1           0       -2.088911    0.488625    1.300972
      8          1           0       -1.303925   -0.322965    2.737227
      9          1           0        2.245629    0.659233    3.544765
     10          6           0        0.357296    1.620564    3.383273
     11          1           0        0.755260    2.459216    3.967730
     12          8           0       -0.828426    1.749818    2.979684
 ---------------------------------------------------------------------

 Alpha  occ. eigenvalues --  -19.15229 -10.26192 -10.23060 -10.20490 -10.18094
 Alpha  occ. eigenvalues --  -10.17618  -1.05629  -0.83741  -0.76636  -0.67662
 Alpha  occ. eigenvalues --   -0.61694  -0.53629  -0.51846  -0.47994  -0.46883
 Alpha  occ. eigenvalues --   -0.45190  -0.40571  -0.39144  -0.38472  -0.33540
 Alpha  occ. eigenvalues --   -0.29890  -0.22452
 Alpha virt. eigenvalues --   -0.07790  -0.00951   0.03894   0.04611   0.06422
 Alpha virt. eigenvalues --    0.07022   0.08680   0.10589   0.11600   0.14810
 Alpha virt. eigenvalues --    0.17067   0.18824   0.19472   0.20402   0.21505

 Mulliken charges:
               1
     1  H    0.123143
     2  C   -0.195829
     3  C   -0.021573
     4  C   -0.084439
     5  H    0.127355
     6  C   -0.261698
     7  H    0.134235
     8  H    0.121159
     9  H    0.101349
    10  C    0.157073
    11  H    0.105373
    12  O   -0.306148
 Sum of Mulliken charges =  -0.00000

 Dipole moment (field-independent basis, Debye):
    X=              1.0169    Y=             -0.6252    Z=             -0.8244  Tot=              1.4507
 Quadrupole moment (field-independent basis, Debye-Ang):
   XX=            -33.1262   YY=            -39.2271   ZZ=            -37.8727
   XY=              2.7011   XZ=              4.0806   YZ=             -0.8264

 Normal termination of Gaussian 16 at Fri Mar 18 11:06:17 2022.
