 Gaussian 16, Revision A.03,
 Gaussian 16:  ES64L-G16RevA.03 25-Dec-2016

 ----------------------------------------------------------------------
 # Opt=(TS, CalcFC, noeigentest, Z-matrix, MaxStep=10) geom=allcheckpoi
 nt guess=read Field=read NoSymm B3LYP/Def2TZVP freq=noraman pop=none
 ----------------------------------------------------------------------

 Structure from the checkpoint file:  "checkpoint.chk"
 -----------------
 ts_zmat_initalOpt
 -----------------
 Charge =  0 Multiplicity = 1

 SCF Done:  E(RB3LYP) =  -439.143729075     A.U. after   11 cycles
 SCF Done:  E(RB3LYP) =  -439.143777850     A.U. after   12 cycles
 SCF Done:  E(RB3LYP) =  -439.143784527     A.U. after   10 cycles
 SCF Done:  E(RB3LYP) =  -439.143780873     A.U. after   11 cycles
 SCF Done:  E(RB3LYP) =  -439.143787097     A.U. after   10 cycles
 SCF Done:  E(RB3LYP) =  -439.143787438     A.U. after    8 cycles
 Optimization completed.
    -- Stationary point found.

 1\1\GINC-BHC0107\FTS\RB3LYP\def2TZVP\C8H7N1O1\DHANAWAY\10-Jun-2022\1\\
 # Opt=(TS, CalcFC, noeigentest, Z-matrix, MaxStep=10) geom=allcheckpoi
 nt guess=read Field=read NoSymm B3LYP/Def2TZVP freq=noraman pop=none\\
 ts_zmat_initalOpt\\0,1\H\N,1,R2\C,2,R3,1,A3\C,2,R4,1,A4,3,D4,0\H,3,R5,
 2,A5,1,D5,0\C,3,R6,2,A6,5,D6,0\C,4,R7,2,A7,1,D7,0\C,4,R8,2,A8,7,D8,0\H
 ,6,R9,3,A9,2,D9,0\H,8,R10,4,A10,2,D10,0\H,7,R11,4,A11,2,D11,0\C,8,R12,
 4,A12,10,D12,0\H,12,R13,8,A13,4,D13,0\C,12,R14,8,A14,13,D14,0\H,14,R15
 ,12,A15,8,D15,0\C,14,R16,12,A16,15,D16,0\O,16,R17,14,A17,12,D17,0\\R2=

 Normal termination of Gaussian 16 at Fri Jun 10 23:41:19 2022.

 --------------------------------------------------------------------
 #N Geom=AllCheck Guess=TCheck SCRF=Check GenChk RB3LYP/def2TZVP Freq
 --------------------------------------------------------------------

 Structure from the checkpoint file:  "checkpoint.chk"
 -----------------
 ts_zmat_initalOpt
 -----------------
 Charge =  0 Multiplicity = 1

                          Input orientation:
 ---------------------------------------------------------------------
 Center     Atomic      Atomic             Coordinates (Angstroms)
 Number     Number       Type             X           Y           Z
 ---------------------------------------------------------------------
      1          1           0        0.000000    0.000000    0.000000
      2          7           0        0.000000    0.000000    1.007016
      3          6           0        1.128920    0.000000    1.811796
      4          6           0       -1.122939   -0.055347    1.768661
      5          1           0        2.113080    0.036842    1.376325
      6          6           0        0.731857   -0.062412    3.110453
      7          6           0       -0.708558   -0.105142    3.119507
      8          6           0       -2.452597   -0.230582    1.299080
      9          1           0        1.381933   -0.057350    3.968721
     10          1           0       -2.740469    0.113091    0.314564
     11          1           0       -1.302242    0.359449    3.896030
     12          6           0       -3.307023   -0.992366    2.038806
     13          1           0       -4.292388   -1.178647    1.626504
     14          6           0       -3.026868   -1.669949    3.258772
     15          1           0       -3.719932   -2.442562    3.580389
     16          6           0       -1.858903   -1.685732    3.974770
     17          8           0       -1.323054   -2.075174    4.953017
 ---------------------------------------------------------------------

 SCF Done:  E(RB3LYP) =  -439.143787438     A.U. after    1 cycles

 Isotropic polarizability for W=    0.000000      108.34 Bohr**3.
 End of Minotr F.D. properties file   721 does not exist.

 ******    1 imaginary frequencies (negative Signs) ******

                      1                      2                      3
                      A                      A                      A
 Frequencies --   -388.8869               109.9866               135.3900
 Red. masses --      6.8346                 5.9760                 4.6211
 Frc consts  --      0.6090                 0.0426                 0.0499
 IR Inten    --    172.4603                 1.6534                 2.2002

                      4                      5                      6
                      A                      A                      A
 Frequencies --    268.7635               285.4747               330.0811
 Red. masses --      4.8545                 3.3683                 7.6333
 Frc consts  --      0.2066                 0.1617                 0.4900
 IR Inten    --     19.4527                 3.7568                 4.5318

                      7                      8                      9
                      A                      A                      A
 Frequencies --    461.1148               511.2045               556.7636
 Red. masses --      4.7412                 3.9793                 2.8105
 Frc consts  --      0.5940                 0.6127                 0.5133
 IR Inten    --      9.5924                 3.2401                 0.7394

                     10                     11                     12
                      A                      A                      A
 Frequencies --    574.9652               610.1935               625.8493
 Red. masses --      1.3436                 3.2862                 2.8851
 Frc consts  --      0.2617                 0.7209                 0.6658
 IR Inten    --     40.7649                 8.7752                 6.5227

                     13                     14                     15
                      A                      A                      A
 Frequencies --    673.8310               709.1905               746.7097
 Red. masses --      1.7042                 2.2683                 1.3836
 Frc consts  --      0.4559                 0.6722                 0.4545
 IR Inten    --     51.9150                47.4220                58.3333

                     16                     17                     18
                      A                      A                      A
 Frequencies --    764.4632               801.4133               849.6615
 Red. masses --      1.8881                 2.1397                 4.5175
 Frc consts  --      0.6501                 0.8097                 1.9215
 IR Inten    --      4.4715                68.3307                33.6675

                     19                     20                     21
                      A                      A                      A
 Frequencies --    881.1107               895.1995               958.0689
 Red. masses --      1.3245                 5.3552                 1.3163
 Frc consts  --      0.6059                 2.5285                 0.7119
 IR Inten    --      0.3926                 8.7071                 2.0654

                     22                     23                     24
                      A                      A                      A
 Frequencies --    990.7547               992.0353              1043.8409
 Red. masses --      2.3450                 2.2028                 1.3550
 Frc consts  --      1.3562                 1.2772                 0.8699
 IR Inten    --      3.3125                11.5807                 6.4062

                     25                     26                     27
                      A                      A                      A
 Frequencies --   1095.1499              1126.5052              1145.9934
 Red. masses --      2.0386                 1.6413                 1.4168
 Frc consts  --      1.4406                 1.2271                 1.0963
 IR Inten    --     13.6592                 5.7764                 7.1377

                     28                     29                     30
                      A                      A                      A
 Frequencies --   1203.7155              1247.3492              1285.4445
 Red. masses --      1.1227                 1.9563                 1.7146
 Frc consts  --      0.9584                 1.7934                 1.6692
 IR Inten    --     12.5012                 1.0427                 2.4996

                     31                     32                     33
                      A                      A                      A
 Frequencies --   1390.0114              1410.4310              1437.7757
 Red. masses --      1.8280                 2.6921                 3.1899
 Frc consts  --      2.0810                 3.1553                 3.8851
 IR Inten    --     13.4305                 8.9760                51.0271

                     34                     35                     36
                      A                      A                      A
 Frequencies --   1461.1849              1535.2641              1588.4606
 Red. masses --      2.2451                 4.6922                 5.0624
 Frc consts  --      2.8243                 6.5162                 7.5260
 IR Inten    --     12.2710                 2.6792               132.9400

                     37                     38                     39
                      A                      A                      A
 Frequencies --   1602.4006              1942.6343              3128.1604
 Red. masses --      3.6296                12.6886                 1.0837
 Frc consts  --      5.4910                28.2128                 6.2481
 IR Inten    --     17.9994               791.0238                15.6007

                     40                     41                     42
                      A                      A                      A
 Frequencies --   3161.8038              3175.6643              3191.4251
 Red. masses --      1.0871                 1.0898                 1.0926
 Frc consts  --      6.4030                 6.4753                 6.5564
 IR Inten    --     11.3435                 1.9185                 5.8159

                     43                     44                     45
                      A                      A                      A
 Frequencies --   3251.6286              3270.3404              3628.4698
 Red. masses --      1.0903                 1.1046                 1.0804
 Frc consts  --      6.7923                 6.9608                 8.3808
 IR Inten    --      2.5537                 0.2039                99.5585

 - Thermochemistry -
 -------------------
 Temperature   298.150 Kelvin.  Pressure   1.00000 Atm.
 Atom     1 has atomic number  1 and mass   1.00783

 Molecular mass:   133.05276 amu.
 Principal axes and moments of inertia in atomic units:
                           1         2         3
     Eigenvalues --   834.165091341.839032076.53869
           X            0.75495   0.60787  -0.24605
           Y            0.44334  -0.19663   0.87452
           Z           -0.48321   0.76931   0.41794
 This molecule is an asymmetric top.
 Rotational symmetry number  1.
 Warning -- assumption of classical behavior for rotation
           may cause significant error
 Rotational temperatures (Kelvin)      0.10383     0.06455     0.04171
 Rotational constants (GHZ):           2.16353     1.34498     0.86911
    1 imaginary frequencies ignored.
 Zero-point vibrational energy     341269.9 (Joules/Mol)
                                   81.56547 (Kcal/Mol)
 Warning -- explicit consideration of  10 degrees of freedom as
           vibrations may cause significant error
 Vibrational temperatures:    158.25   194.80   386.69   410.73   474.91
          (Kelvin)            663.44   735.51   801.06   827.25   877.93
                              900.46   969.49  1020.37  1074.35  1099.89
                             1153.06  1222.47  1267.72  1287.99  1378.45
                             1425.48  1427.32  1501.85  1575.68  1620.79
                             1648.83  1731.88  1794.66  1849.47  1999.92
                             2029.30  2068.64  2102.32  2208.90  2285.44
                             2305.50  2795.02  4500.73  4549.13  4569.07
                             4591.75  4678.37  4705.29  5220.56

 Zero-point correction=                           0.129983 (Hartree/Particle)
 Thermal correction to Energy=                    0.137588
 Thermal correction to Enthalpy=                  0.138532
 Thermal correction to Gibbs Free Energy=         0.097619
 Sum of electronic and zero-point Energies=           -439.013805
 Sum of electronic and thermal Energies=              -439.006200
 Sum of electronic and thermal Enthalpies=            -439.005256
 Sum of electronic and thermal Free Energies=         -439.046169

                     E (Thermal)             CV                S
                      KCal/Mol        Cal/Mol-Kelvin    Cal/Mol-Kelvin
 Total                   86.338             30.454             86.108
 Electronic               0.000              0.000              0.000
 Translational            0.889              2.981             40.569
 Rotational               0.889              2.981             29.232
 Vibrational             84.560             24.493             16.308
 Vibration     1          0.606              1.941              3.269
 Vibration     2          0.613              1.918              2.868
 Vibration     3          0.673              1.731              1.604
 Vibration     4          0.683              1.701              1.501
 Vibration     5          0.713              1.615              1.260
 Vibration     6          0.819              1.336              0.763
 Vibration     7          0.866              1.225              0.631
 Vibration     8          0.912              1.125              0.530
 Vibration     9          0.931              1.085              0.495
 Vibration    10          0.969              1.010              0.432

 Optimization completed.
    -- Stationary point found.
 Normal termination of Gaussian 16 at Fri Jun 10 23:52:15 2022.
