 Gaussian 16, Revision A.03,
 Gaussian 16:  ES64L-G16RevA.03 25-Dec-2016

 ----------------------------------------------------------------------
 # Opt=(TS, CalcFC, noeigentest, Z-matrix, MaxStep=10) Field=read NoSym
 m B3LYP/Def2TZVP freq=noraman pop=none
 ----------------------------------------------------------------------

 -----------------
 ts_zmat_initalOpt
 -----------------
 Symbolic Z-matrix:
 Charge =  0 Multiplicity = 1

 SCF Done:  E(RB3LYP) =  -439.138921448     A.U. after   15 cycles
 SCF Done:  E(RB3LYP) =  -439.138959378     A.U. after   12 cycles
 Optimization completed.
    -- Stationary point found.

 1\1\GINC-BHC0108\FTS\RB3LYP\def2TZVP\C8H7N1O1\DHANAWAY\10-Jun-2022\1\\
 # Opt=(TS, CalcFC, noeigentest, Z-matrix, MaxStep=10) Field=read NoSym
 m B3LYP/Def2TZVP freq=noraman pop=none\\ts_zmat_initalOpt\\0,1\C\C,1,R
 2\C,1,R3,2,A3\H,1,R4,2,A4,3,D4,0\O,3,R5,1,A5,2,D5,0\C,2,R6,1,A6,3,D6,0
 \H,2,R7,1,A7,6,D7,0\C,6,R8,2,A8,1,D8,0\H,6,R9,2,A9,8,D9,0\C,8,R10,6,A1
 0,2,D10,0\N,8,R11,6,A11,10,D11,0\H,10,R12,8,A12,6,D12,0\C,10,R13,8,A13
 ,12,D13,0\C,11,R14,8,A14,6,D14,0\H,11,R15,8,A15,14,D15,0\H,13,R16,10,A
 16,8,D16,0\H,14,R17,11,A17,8,D17,0\\R2=1.42068751\R3=1.37196107\R4=1.0

 Normal termination of Gaussian 16 at Fri Jun 10 03:07:13 2022.

 --------------------------------------------------------------------
 #N Geom=AllCheck Guess=TCheck SCRF=Check GenChk RB3LYP/def2TZVP Freq
 --------------------------------------------------------------------

 Structure from the checkpoint file:  "checkpoint.chk"
 -----------------
 ts_zmat_initalOpt
 -----------------
 Charge =  0 Multiplicity = 1

                          Input orientation:
 ---------------------------------------------------------------------
 Center     Atomic      Atomic             Coordinates (Angstroms)
 Number     Number       Type             X           Y           Z
 ---------------------------------------------------------------------
      1          6           0        0.000000    0.000000    0.000000
      2          6           0        0.000000    0.000000    1.420688
      3          6           0        1.079545    0.000000   -0.846675
      4          1           0       -0.927022    0.248868   -0.508475
      5          8           0        1.425952   -0.001278   -1.975384
      6          6           0        1.084531    0.006280    2.249819
      7          1           0       -0.979121    0.074991    1.880051
      8          6           0        2.377519   -0.006478    1.664345
      9          1           0        0.959045    0.145046    3.315136
     10          6           0        2.701733   -0.537045    0.394047
     11          7           0        3.481004    0.644844    2.118711
     12          1           0        2.284407   -1.481878    0.069251
     13          6           0        4.067175   -0.160739    0.123870
     14          6           0        4.506499    0.562616    1.185628
     15          1           0        3.505046    1.216139    2.946801
     16          1           0        4.645973   -0.425469   -0.744642
     17          1           0        5.458997    1.027205    1.376521
 ---------------------------------------------------------------------

 SCF Done:  E(RB3LYP) =  -439.138959378     A.U. after    1 cycles

 Isotropic polarizability for W=    0.000000      108.09 Bohr**3.
 End of Minotr F.D. properties file   721 does not exist.

 ******    1 imaginary frequencies (negative Signs) ******

                      1                      2                      3
                      A                      A                      A
 Frequencies --   -409.7732               110.8938               136.3798
 Red. masses --      6.8201                 6.0076                 4.6428
 Frc consts  --      0.6747                 0.0435                 0.0509
 IR Inten    --    165.7883                 1.2330                 1.7238

                      4                      5                      6
                      A                      A                      A
 Frequencies --    270.2141               286.2314               333.9533
 Red. masses --      4.8736                 3.3630                 7.5542
 Frc consts  --      0.2097                 0.1623                 0.4964
 IR Inten    --     19.8012                 3.4724                 3.4594

                      7                      8                      9
                      A                      A                      A
 Frequencies --    459.8852               508.0491               559.0609
 Red. masses --      4.6775                 3.6096                 1.8564
 Frc consts  --      0.5829                 0.5489                 0.3418
 IR Inten    --      6.9954                 5.9228                23.6749

                     10                     11                     12
                      A                      A                      A
 Frequencies --    563.3567               610.9811               625.1793
 Red. masses --      1.8238                 3.1478                 3.3142
 Frc consts  --      0.3410                 0.6923                 0.7632
 IR Inten    --     30.5661                 8.7110                 4.7443

                     13                     14                     15
                      A                      A                      A
 Frequencies --    677.0443               708.7897               741.9136
 Red. masses --      1.6960                 2.0084                 1.4502
 Frc consts  --      0.4580                 0.5945                 0.4703
 IR Inten    --     44.5002                68.4481                39.2005

                     16                     17                     18
                      A                      A                      A
 Frequencies --    759.9208               806.7564               849.2300
 Red. masses --      1.9316                 2.1963                 4.5105
 Frc consts  --      0.6572                 0.8422                 1.9166
 IR Inten    --      5.1937                61.1790                31.0953

                     19                     20                     21
                      A                      A                      A
 Frequencies --    874.7043               895.0222               962.0757
 Red. masses --      1.3224                 5.4127                 1.3193
 Frc consts  --      0.5961                 2.5546                 0.7195
 IR Inten    --      1.4470                 8.1883                 2.0088

                     22                     23                     24
                      A                      A                      A
 Frequencies --    989.2205               996.9081              1045.0452
 Red. masses --      2.3874                 2.1218                 1.3682
 Frc consts  --      1.3764                 1.2424                 0.8804
 IR Inten    --      4.2038                 8.0649                 7.0333

                     25                     26                     27
                      A                      A                      A
 Frequencies --   1092.9090              1126.2708              1145.5240
 Red. masses --      2.0222                 1.6349                 1.4168
 Frc consts  --      1.4231                 1.2219                 1.0954
 IR Inten    --     13.2480                 4.2083                 6.1027

                     28                     29                     30
                      A                      A                      A
 Frequencies --   1202.0843              1247.7056              1281.1781
 Red. masses --      1.1266                 1.9480                 1.7265
 Frc consts  --      0.9592                 1.7868                 1.6697
 IR Inten    --     16.5938                 1.0816                 2.8266

                     31                     32                     33
                      A                      A                      A
 Frequencies --   1388.4324              1407.6249              1435.8729
 Red. masses --      1.8462                 2.6237                 3.0137
 Frc consts  --      2.0969                 3.0629                 3.6609
 IR Inten    --     16.7525                 9.4490                50.0373

                     34                     35                     36
                      A                      A                      A
 Frequencies --   1460.3938              1541.0303              1581.2414
 Red. masses --      2.2663                 4.9099                 4.9447
 Frc consts  --      2.8478                 6.8698                 7.2842
 IR Inten    --     18.8125                 7.3264               151.5279

                     37                     38                     39
                      A                      A                      A
 Frequencies --   1601.9197              1942.7112              3134.1590
 Red. masses --      3.6672                12.7054                 1.0840
 Frc consts  --      5.5446                28.2524                 6.2736
 IR Inten    --     19.5398               780.3932                11.0812

                     40                     41                     42
                      A                      A                      A
 Frequencies --   3164.9724              3171.9841              3192.5468
 Red. masses --      1.0872                 1.0900                 1.0926
 Frc consts  --      6.4165                 6.4614                 6.5613
 IR Inten    --      8.3944                 3.4892                 6.0261

                     43                     44                     45
                      A                      A                      A
 Frequencies --   3250.0392              3268.5877              3634.2889
 Red. masses --      1.0898                 1.1047                 1.0800
 Frc consts  --      6.7821                 6.9536                 8.4042
 IR Inten    --      0.9656                 0.6008                80.9524

 - Thermochemistry -
 -------------------
 Temperature   298.150 Kelvin.  Pressure   1.00000 Atm.
 Atom     1 has atomic number  6 and mass  12.00000

 Molecular mass:   133.05276 amu.
 Principal axes and moments of inertia in atomic units:
                           1         2         3
     Eigenvalues --   835.113011328.955542063.04109
           X            0.87905  -0.47302  -0.05935
           Y            0.09619   0.05405   0.99389
           Z            0.46692   0.87939  -0.09301
 This molecule is an asymmetric top.
 Rotational symmetry number  1.
 Warning -- assumption of classical behavior for rotation
           may cause significant error
 Rotational temperatures (Kelvin)      0.10372     0.06517     0.04198
 Rotational constants (GHZ):           2.16107     1.35801     0.87480
    1 imaginary frequencies ignored.
 Zero-point vibrational energy     341188.7 (Joules/Mol)
                                   81.54605 (Kcal/Mol)
 Warning -- explicit consideration of  10 degrees of freedom as
           vibrations may cause significant error
 Vibrational temperatures:    159.55   196.22   388.78   411.82   480.48
          (Kelvin)            661.67   730.97   804.36   810.54   879.07
                              899.49   974.12  1019.79  1067.45  1093.36
                             1160.74  1221.85  1258.50  1287.74  1384.21
                             1423.27  1434.33  1503.59  1572.45  1620.45
                             1648.15  1729.53  1795.17  1843.33  1997.64
                             2025.26  2065.90  2101.18  2217.20  2275.05
                             2304.81  2795.13  4509.36  4553.69  4563.78
                             4593.36  4676.08  4702.77  5228.93

 Zero-point correction=                           0.129952 (Hartree/Particle)
 Thermal correction to Energy=                    0.137556
 Thermal correction to Enthalpy=                  0.138500
 Thermal correction to Gibbs Free Energy=         0.097609
 Sum of electronic and zero-point Energies=           -439.009007
 Sum of electronic and thermal Energies=              -439.001403
 Sum of electronic and thermal Enthalpies=            -439.000459
 Sum of electronic and thermal Free Energies=         -439.041351

                     E (Thermal)             CV                S
                      KCal/Mol        Cal/Mol-Kelvin    Cal/Mol-Kelvin
 Total                   86.318             30.481             86.064
 Electronic               0.000              0.000              0.000
 Translational            0.889              2.981             40.569
 Rotational               0.889              2.981             29.217
 Vibrational             84.540             24.520             16.278
 Vibration     1          0.607              1.940              3.253
 Vibration     2          0.614              1.917              2.854
 Vibration     3          0.674              1.728              1.595
 Vibration     4          0.684              1.699              1.496
 Vibration     5          0.715              1.608              1.241
 Vibration     6          0.818              1.339              0.766
 Vibration     7          0.863              1.232              0.638
 Vibration     8          0.915              1.120              0.526
 Vibration     9          0.919              1.111              0.517
 Vibration    10          0.970              1.009              0.431

 Optimization completed.
    -- Stationary point found.
 Normal termination of Gaussian 16 at Fri Jun 10 03:18:12 2022.
