 Gaussian 16, Revision A.03,
 Gaussian 16:  ES64L-G16RevA.03 25-Dec-2016

 ----------------------------------------------------------------------
 # Opt=(TS, CalcFC, noeigentest, Z-matrix, MaxStep=10) geom=allcheckpoi
 nt guess=read Field=read NoSymm B3LYP/Def2TZVP freq=noraman pop=none
 ----------------------------------------------------------------------

 Structure from the checkpoint file:  "checkpoint.chk"
 -----------------
 ts_zmat_initalOpt
 -----------------
 Charge =  0 Multiplicity = 1

 SCF Done:  E(RB3LYP) =  -289.018171206     A.U. after   10 cycles
 SCF Done:  E(RB3LYP) =  -289.018176082     A.U. after    9 cycles
 Optimization completed.
    -- Stationary point found.
 Normal termination of Gaussian 16 at Fri Jun 10 11:55:07 2022.

 --------------------------------------------------------------------
 #N Geom=AllCheck Guess=TCheck SCRF=Check GenChk RB3LYP/def2TZVP Freq
 --------------------------------------------------------------------

 Structure from the checkpoint file:  "checkpoint.chk"
 -----------------
 ts_zmat_initalOpt
 -----------------
 Charge =  0 Multiplicity = 1

                          Input orientation:
 ---------------------------------------------------------------------
 Center     Atomic      Atomic             Coordinates (Angstroms)
 Number     Number       Type             X           Y           Z
 ---------------------------------------------------------------------
      1          7           0        0.000000    0.000000    0.000000
      2          8           0        0.000000    0.000000    1.338991
      3          6           0        1.363032    0.000000   -0.545443
      4          6           0       -0.845096   -1.060882   -0.543811
      5          1           0        1.867189   -0.940251   -0.309196
      6          1           0        1.914490    0.816960   -0.088121
      7          1           0        1.327390    0.139389   -1.627299
      8          1           0       -1.835659   -0.968336   -0.102305
      9          1           0       -0.432485   -2.042950   -0.293526
     10          1           0       -0.910546   -0.958497   -1.629463
     11          6           0       -0.877241    1.813645   -0.378300
     12          6           0       -1.114801    2.227143    0.943729
     13          1           0       -0.054186    2.234320   -0.942609
     14          1           0       -1.685420    1.431719   -0.992777
     15          1           0       -0.554341    1.122539    1.492229
     16          1           0       -2.140597    2.220436    1.301602
     17          1           0       -0.514871    3.041855    1.335517
 ---------------------------------------------------------------------

 SCF Done:  E(RB3LYP) =  -289.018176082     A.U. after    1 cycles

 Isotropic polarizability for W=    0.000000       71.41 Bohr**3.
 End of Minotr F.D. properties file   721 does not exist.

 ******    1 imaginary frequencies (negative Signs) ******

                      1                      2                      3
                      A                      A                      A
 Frequencies --  -1123.8065               116.5727               222.8900
 Red. masses --      1.2777                 2.2584                 1.1380
 Frc consts  --      0.9507                 0.0181                 0.0333
 IR Inten    --    270.2388                 0.1698                 0.1713

                      4                      5                      6
                      A                      A                      A
 Frequencies --    235.7315               245.4471               276.7505
 Red. masses --      1.9690                 1.1070                 2.6453
 Frc consts  --      0.0645                 0.0393                 0.1194
 IR Inten    --      0.0401                 1.8076                19.6055

                      7                      8                      9
                      A                      A                      A
 Frequencies --    380.6317               426.2006               495.6233
 Red. masses --      2.7677                 2.9653                 3.2622
 Frc consts  --      0.2363                 0.3174                 0.4721
 IR Inten    --     28.5819                23.1570                 8.7230

                     10                     11                     12
                      A                      A                      A
 Frequencies --    535.4291               569.1443               634.9192
 Red. masses --      1.1404                 3.1310                 5.4665
 Frc consts  --      0.1926                 0.5976                 1.2984
 IR Inten    --      2.1416                 5.8553                 7.5945

                     13                     14                     15
                      A                      A                      A
 Frequencies --    817.6012               864.7663               922.5712
 Red. masses --      1.0875                 4.2740                 1.1138
 Frc consts  --      0.4283                 1.8831                 0.5586
 IR Inten    --      1.9534                28.0126                 2.5696

                     16                     17                     18
                      A                      A                      A
 Frequencies --    998.4577              1012.0959              1068.8802
 Red. masses --      1.2978                 1.5558                 1.1729
 Frc consts  --      0.7623                 0.9389                 0.7895
 IR Inten    --     18.1494                 1.7295                 4.8074

                     19                     20                     21
                      A                      A                      A
 Frequencies --   1085.8551              1101.1750              1198.6205
 Red. masses --      2.0381                 1.2385                 1.6108
 Frc consts  --      1.4159                 0.8848                 1.3635
 IR Inten    --     44.0726                 0.6072                 1.2186

                     22                     23                     24
                      A                      A                      A
 Frequencies --   1233.9729              1258.1382              1262.8337
 Red. masses --      1.4645                 2.9791                 2.1577
 Frc consts  --      1.3138                 2.7784                 2.0274
 IR Inten    --      1.6660                 3.9453                57.7170

                     25                     26                     27
                      A                      A                      A
 Frequencies --   1313.7190              1320.2205              1425.6227
 Red. masses --      1.8936                 1.1566                 1.1758
 Frc consts  --      1.9255                 1.1878                 1.4079
 IR Inten    --     91.9080                31.8124                 0.7463

                     28                     29                     30
                      A                      A                      A
 Frequencies --   1452.2138              1469.6452              1471.3033
 Red. masses --      1.1889                 1.1032                 1.0494
 Frc consts  --      1.4772                 1.4039                 1.3384
 IR Inten    --      3.4584                 2.0124                 1.7604

                     31                     32                     33
                      A                      A                      A
 Frequencies --   1485.9746              1491.8965              1507.0218
 Red. masses --      1.0476                 1.0477                 1.0626
 Frc consts  --      1.3629                 1.3740                 1.4219
 IR Inten    --      8.8700                 5.6882                 5.1104

                     34                     35                     36
                      A                      A                      A
 Frequencies --   1541.7668              1692.3464              3013.9107
 Red. masses --      1.4808                 1.0602                 1.0354
 Frc consts  --      2.0739                 1.7891                 5.5412
 IR Inten    --     29.1996                29.2839                48.4871

                     37                     38                     39
                      A                      A                      A
 Frequencies --   3032.3298              3076.6865              3097.7066
 Red. masses --      1.0362                 1.1015                 1.0955
 Frc consts  --      5.6138                 6.1432                 6.1935
 IR Inten    --     45.1696                20.5683                18.3859

                     40                     41                     42
                      A                      A                      A
 Frequencies --   3098.2610              3117.3892              3123.2401
 Red. masses --      1.0612                 1.0618                 1.1008
 Frc consts  --      6.0017                 6.0794                 6.3268
 IR Inten    --     25.4136                26.6537                19.3944

                     43                     44                     45
                      A                      A                      A
 Frequencies --   3153.5299              3170.4718              3201.4317
 Red. masses --      1.1012                 1.1108                 1.1144
 Frc consts  --      6.4522                 6.5788                 6.7293
 IR Inten    --      3.5309                 2.0583                21.5711

 - Thermochemistry -
 -------------------
 Temperature   298.150 Kelvin.  Pressure   1.00000 Atm.
 Atom     1 has atomic number  7 and mass  14.00307

 Molecular mass:    89.08406 amu.
 Principal axes and moments of inertia in atomic units:
                           1         2         3
     Eigenvalues --   375.15279 713.22456 726.96136
           X           -0.42745   0.89020   0.15758
           Y            0.85318   0.45487  -0.25532
           Z            0.29896  -0.02530   0.95393
 This molecule is an asymmetric top.
 Rotational symmetry number  1.
 Rotational temperatures (Kelvin)      0.23088     0.12144     0.11915
 Rotational constants (GHZ):           4.81068     2.53040     2.48258
    1 imaginary frequencies ignored.
 Zero-point vibrational energy     384126.9 (Joules/Mol)
                                   91.80852 (Kcal/Mol)
 Warning -- explicit consideration of  10 degrees of freedom as
           vibrations may cause significant error
 Vibrational temperatures:    167.72   320.69   339.17   353.14   398.18
          (Kelvin)            547.64   613.21   713.09   770.36   818.87
                              913.51  1176.35  1244.21  1327.37  1436.56
                             1456.18  1537.88  1562.30  1584.35  1724.55
                             1775.41  1810.18  1816.94  1890.15  1899.50
                             2051.15  2089.41  2114.49  2116.88  2137.99
                             2146.51  2168.27  2218.26  2434.91  4336.35
                             4362.85  4426.67  4456.91  4457.71  4485.23
                             4493.65  4537.23  4561.60  4606.15

 Zero-point correction=                           0.146306 (Hartree/Particle)
 Thermal correction to Energy=                    0.153637
 Thermal correction to Enthalpy=                  0.154581
 Thermal correction to Gibbs Free Energy=         0.115811
 Sum of electronic and zero-point Energies=           -288.871870
 Sum of electronic and thermal Energies=              -288.864539
 Sum of electronic and thermal Enthalpies=            -288.863595
 Sum of electronic and thermal Free Energies=         -288.902366

                     E (Thermal)             CV                S
                      KCal/Mol        Cal/Mol-Kelvin    Cal/Mol-Kelvin
 Total                   96.409             27.344             81.600
 Electronic               0.000              0.000              0.000
 Translational            0.889              2.981             39.373
 Rotational               0.889              2.981             26.767
 Vibrational             94.631             21.382             15.460
 Vibration     1          0.608              1.936              3.156
 Vibration     2          0.649              1.806              1.935
 Vibration     3          0.655              1.786              1.835
 Vibration     4          0.660              1.770              1.763
 Vibration     5          0.678              1.716              1.554
 Vibration     6          0.750              1.511              1.037
 Vibration     7          0.788              1.413              0.871
 Vibration     8          0.851              1.260              0.669
 Vibration     9          0.890              1.172              0.575
 Vibration    10          0.925              1.098              0.506

 Optimization completed.
    -- Stationary point found.
 Normal termination of Gaussian 16 at Fri Jun 10 11:59:20 2022.
