 Gaussian 16, Revision A.03,
 Gaussian 16:  ES64L-G16RevA.03 25-Dec-2016

 --------------------------
 # sp B3LYP/Def2TZVP NoSymm
 --------------------------

 ---------------------------------
 ts_initalOptXYZ_aligned_AlignedSp
 ---------------------------------
 Symbolic Z-matrix:
 Charge =  0 Multiplicity = 1

                          Input orientation:
 ---------------------------------------------------------------------
 Center     Atomic      Atomic             Coordinates (Angstroms)
 Number     Number       Type             X           Y           Z
 ---------------------------------------------------------------------
      1          1           0        0.244858   -1.204006   -2.810383
      2          6           0        0.241361   -1.408433   -0.685236
      3          1           0        0.393218   -2.481227   -0.694843
      4          6           0        0.023803   -0.705656    0.512291
      5          6           0       -0.241361   -1.113186    1.850531
      6          1           0       -1.155578   -0.773919    2.310410
      7          6           0        0.241361    1.113186    1.850531
      8          1           0        0.196862   -2.003269    2.297632
      9          1           0        1.155578    0.773919    2.310410
     10          1           0       -0.196862    2.003269    2.297632
     11          6           0       -0.023803    0.705656    0.512291
     12          6           0       -0.241361    1.408433   -0.685236
     13          1           0       -0.393218    2.481227   -0.694843
     14          6           0       -0.142394    0.692381   -1.861389
     15          6           0        0.142394   -0.692381   -1.861389
     16          1           0       -0.244858    1.204006   -2.810383
 ---------------------------------------------------------------------

 SCF Done:  E(RB3LYP) =  -309.678350209     A.U. after   14 cycles

 Alpha  occ. eigenvalues --  -10.19120 -10.19119 -10.18024 -10.17978 -10.17685
 Alpha  occ. eigenvalues --  -10.17684 -10.17570 -10.17525  -0.87271  -0.79379
 Alpha  occ. eigenvalues --   -0.75980  -0.68333  -0.66637  -0.59379  -0.56988
 Alpha  occ. eigenvalues --   -0.51025  -0.47434  -0.45895  -0.44913  -0.42905
 Alpha  occ. eigenvalues --   -0.41364  -0.40142  -0.36344  -0.35282  -0.34451
 Alpha  occ. eigenvalues --   -0.27423  -0.24837  -0.21797
 Alpha virt. eigenvalues --   -0.06621  -0.00702  -0.00261   0.05535   0.05897
 Alpha virt. eigenvalues --    0.07497   0.09649   0.10165   0.11225   0.11310
 Alpha virt. eigenvalues --    0.12560   0.13339   0.14220   0.16655   0.18311

 Mulliken charges:
               1
     1  H    0.108265
     2  C   -0.196905
     3  H    0.102885
     4  C    0.108366
     5  C   -0.290413
     6  H    0.146730
     7  C   -0.290413
     8  H    0.118230
     9  H    0.146730
    10  H    0.118230
    11  C    0.108366
    12  C   -0.196905
    13  H    0.102885
    14  C   -0.097158
    15  C   -0.097158
    16  H    0.108265
 Sum of Mulliken charges =  -0.00000

 Dipole moment (field-independent basis, Debye):
    X=             -0.0000    Y=              0.0000    Z=              0.1991  Tot=              0.1991
 Quadrupole moment (field-independent basis, Debye-Ang):
   XX=            -50.9143   YY=            -44.3492   ZZ=            -44.8219
   XY=             -1.5537   XZ=             -0.0000   YZ=              0.0000

 Normal termination of Gaussian 16 at Fri Jun 10 22:20:01 2022.
