 Gaussian 16, Revision A.03,
 Gaussian 16:  ES64L-G16RevA.03 25-Dec-2016

 --------------------------
 # sp B3LYP/Def2TZVP NoSymm
 --------------------------

 ----------------------------------
 int_initalOptXYZ_aligned_AlignedSp
 ----------------------------------
 Symbolic Z-matrix:
 Charge =  0 Multiplicity = 1

                          Input orientation:
 ---------------------------------------------------------------------
 Center     Atomic      Atomic             Coordinates (Angstroms)
 Number     Number       Type             X           Y           Z
 ---------------------------------------------------------------------
      1          6           0       -0.041337    0.693773    0.452035
      2          6           0       -0.085245    1.430704   -0.716992
      3          1           0       -0.149674    2.512032   -0.733116
      4          6           0       -0.041545    0.697267   -1.907275
      5          6           0        0.041544   -0.697269   -1.907275
      6          1           0       -0.072657    1.219414   -2.855804
      7          1           0        0.072656   -1.219414   -2.855803
      8          6           0        0.085244   -1.430704   -0.716992
      9          1           0        0.149675   -2.512032   -0.733116
     10          6           0        0.041337   -0.693770    0.452035
     11          6           0        0.046948   -0.787871    1.968469
     12          1           0       -0.811019   -1.294473    2.414063
     13          6           0       -0.046948    0.787871    1.968470
     14          1           0        0.959004   -1.189003    2.414060
     15          1           0        0.811019    1.294473    2.414064
     16          1           0       -0.959003    1.189002    2.414062
 ---------------------------------------------------------------------

 SCF Done:  E(RB3LYP) =  -309.742819699     A.U. after   13 cycles

 Alpha  occ. eigenvalues --  -10.18048 -10.18032 -10.17443 -10.17443 -10.17337
 Alpha  occ. eigenvalues --  -10.17285 -10.17212 -10.17159  -0.88093  -0.80978
 Alpha  occ. eigenvalues --   -0.74868  -0.68799  -0.64368  -0.59900  -0.56170
 Alpha  occ. eigenvalues --   -0.51352  -0.46836  -0.46672  -0.44725  -0.40431
 Alpha  occ. eigenvalues --   -0.40081  -0.37261  -0.35866  -0.35261  -0.32729
 Alpha  occ. eigenvalues --   -0.31683  -0.25426  -0.24295
 Alpha virt. eigenvalues --   -0.01662  -0.00276   0.04513   0.05605   0.06179
 Alpha virt. eigenvalues --    0.08597   0.09568   0.10093   0.12084   0.12147
 Alpha virt. eigenvalues --    0.12690   0.14542   0.14818   0.16993   0.17004

 Mulliken charges:
               1
     1  C    0.021476
     2  C   -0.218396
     3  H    0.103790
     4  C   -0.088418
     5  C   -0.088417
     6  H    0.106001
     7  H    0.106001
     8  C   -0.218397
     9  H    0.103790
    10  C    0.021477
    11  C   -0.106706
    12  H    0.091125
    13  C   -0.106707
    14  H    0.091128
    15  H    0.091125
    16  H    0.091128
 Sum of Mulliken charges =  -0.00000

 Dipole moment (field-independent basis, Debye):
    X=              0.0000    Y=             -0.0000    Z=              0.4916  Tot=              0.4916
 Quadrupole moment (field-independent basis, Debye-Ang):
   XX=            -50.2967   YY=            -44.6081   ZZ=            -44.1452
   XY=             -0.3403   XZ=             -0.0000   YZ=              0.0000

 Normal termination of Gaussian 16 at Fri Jun 10 02:22:12 2022.
