 Gaussian 16, Revision A.03,
 Gaussian 16:  ES64L-G16RevA.03 25-Dec-2016

 ------------------------------------------
 # Opt B3LYP/Def2TZVP freq=noraman pop=none
 ------------------------------------------

 -------------
 int_initalOpt
 -------------
 Symbolic Z-matrix:
 Charge =  0 Multiplicity = 1

 SCF Done:  E(RB3LYP) =  -312.116805231     A.U. after   13 cycles
 Optimization completed.
    -- Stationary point found.
 Normal termination of Gaussian 16 at Fri Jun 10 21:40:40 2022.

 --------------------------------------------------------------------
 #N Geom=AllCheck Guess=TCheck SCRF=Check GenChk RB3LYP/def2TZVP Freq
 --------------------------------------------------------------------

 Structure from the checkpoint file:  "checkpoint.chk"
 -------------
 int_initalOpt
 -------------
 Charge =  0 Multiplicity = 1

                         Standard orientation:
 ---------------------------------------------------------------------
 Center     Atomic      Atomic             Coordinates (Angstroms)
 Number     Number       Type             X           Y           Z
 ---------------------------------------------------------------------
      1          6           0       -0.329566    1.399262   -0.699157
      2          6           0        1.111008    1.470272   -0.139762
      3          6           0        0.789566    0.284539    0.805730
      4          6           0       -0.745003    0.597976    0.554344
      5          6           0       -1.741278   -0.509189    0.486674
      6          6           0       -2.457268   -0.859191   -0.575379
      7          6           0        1.231589   -1.081316    0.381719
      8          6           0        2.089937   -1.392934   -0.582028
      9          1           0       -1.889388   -1.057363    1.415243
     10          1           0       -3.173071   -1.670035   -0.529804
     11          1           0       -2.360676   -0.349860   -1.526569
     12          1           0       -0.373544    0.788618   -1.601125
     13          1           0       -0.850293    2.338489   -0.885243
     14          1           0        1.285287    2.386569    0.425162
     15          1           0        1.928573    1.345933   -0.847424
     16          1           0        1.087482    0.431032    1.848043
     17          1           0       -1.058044    1.293342    1.340458
     18          1           0        2.574026   -0.644681   -1.196959
     19          1           0        0.791170   -1.894005    0.954597
     20          1           0        2.344572   -2.424554   -0.789224
 ---------------------------------------------------------------------

 SCF Done:  E(RB3LYP) =  -312.116805231     A.U. after    1 cycles

 Isotropic polarizability for W=    0.000000       92.23 Bohr**3.
 End of Minotr F.D. properties file   721 does not exist.

                      1                      2                      3
                      A                      A                      A
 Frequencies --     64.5836                96.0682               111.4159
 Red. masses --      2.9303                 2.1763                 2.3475
 Frc consts  --      0.0072                 0.0118                 0.0172
 IR Inten    --      0.0066                 0.0325                 0.0379

                      4                      5                      6
                      A                      A                      A
 Frequencies --    206.4979               250.9663               303.2836
 Red. masses --      2.1300                 2.4280                 2.4162
 Frc consts  --      0.0535                 0.0901                 0.1309
 IR Inten    --      0.0786                 0.5209                 0.4402

                      7                      8                      9
                      A                      A                      A
 Frequencies --    396.8290               493.5296               532.5552
 Red. masses --      2.0062                 2.1648                 2.1350
 Frc consts  --      0.1861                 0.3107                 0.3568
 IR Inten    --      2.9711                 2.1081                 0.9705

                     10                     11                     12
                      A                      A                      A
 Frequencies --    601.7771               642.6980               735.6469
 Red. masses --      1.9633                 2.0249                 1.5155
 Frc consts  --      0.4189                 0.4928                 0.4832
 IR Inten    --      3.2517                 5.0173                 2.5443

                     13                     14                     15
                      A                      A                      A
 Frequencies --    769.8146               813.8688               910.2134
 Red. masses --      1.8019                 2.2066                 2.1675
 Frc consts  --      0.6291                 0.8612                 1.0580
 IR Inten    --      4.8247                 3.0238                 5.1068

                     16                     17                     18
                      A                      A                      A
 Frequencies --    937.5144               943.5854               948.5673
 Red. masses --      2.6801                 1.6523                 1.3765
 Frc consts  --      1.3879                 0.8668                 0.7297
 IR Inten    --      2.3074                27.5534                42.4352

                     19                     20                     21
                      A                      A                      A
 Frequencies --    949.5279               979.1163              1026.9370
 Red. masses --      1.7982                 1.6890                 1.2751
 Frc consts  --      0.9552                 0.9540                 0.7923
 IR Inten    --     12.7964                 0.3615                 0.1651

                     22                     23                     24
                      A                      A                      A
 Frequencies --   1030.8082              1037.4487              1063.1061
 Red. masses --      1.1171                 1.1199                 1.8432
 Frc consts  --      0.6994                 0.7102                 1.2274
 IR Inten    --     11.8720                 8.1143                 2.3327

                     25                     26                     27
                      A                      A                      A
 Frequencies --   1083.0616              1122.7085              1161.6845
 Red. masses --      1.7615                 1.5295                 1.8178
 Frc consts  --      1.2174                 1.1359                 1.4454
 IR Inten    --      9.8663                 5.6677                 0.4045

                     28                     29                     30
                      A                      A                      A
 Frequencies --   1205.6865              1227.3268              1256.5700
 Red. masses --      1.3422                 1.2831                 1.3544
 Frc consts  --      1.1496                 1.1388                 1.2600
 IR Inten    --      2.7671                 0.7799                 0.1658

                     31                     32                     33
                      A                      A                      A
 Frequencies --   1270.3902              1276.6289              1333.1690
 Red. masses --      1.3263                 1.4534                 1.2997
 Frc consts  --      1.2612                 1.3956                 1.3610
 IR Inten    --      2.9614                 0.0609                 0.6494

                     34                     35                     36
                      A                      A                      A
 Frequencies --   1341.0601              1360.1590              1380.1326
 Red. masses --      1.2878                 1.4452                 1.6561
 Frc consts  --      1.3646                 1.5753                 1.8586
 IR Inten    --      0.0248                 1.1487                 4.0403

                     37                     38                     39
                      A                      A                      A
 Frequencies --   1454.4509              1457.8354              1488.7225
 Red. masses --      1.1986                 1.2096                 1.0924
 Frc consts  --      1.4939                 1.5146                 1.4265
 IR Inten    --      2.2050                 4.9060                 2.8218

                     40                     41                     42
                      A                      A                      A
 Frequencies --   1507.2797              1701.7509              1703.8396
 Red. masses --      1.1255                 4.5439                 4.5001
 Frc consts  --      1.5066                 7.7531                 7.6972
 IR Inten    --      4.6562                19.7004                14.8332

                     43                     44                     45
                      A                      A                      A
 Frequencies --   3010.0998              3027.5611              3060.0217
 Red. masses --      1.0832                 1.0839                 1.0571
 Frc consts  --      5.7827                 5.8537                 5.8322
 IR Inten    --     11.9440                38.2840                34.2025

                     46                     47                     48
                      A                      A                      A
 Frequencies --   3065.1720              3101.4886              3111.1248
 Red. masses --      1.0636                 1.1052                 1.0849
 Frc consts  --      5.8876                 6.2637                 6.1869
 IR Inten    --     35.4785                16.5059                12.4118

                     49                     50                     51
                      A                      A                      A
 Frequencies --   3116.5766              3122.1223              3141.8231
 Red. masses --      1.1063                 1.0834                 1.0623
 Frc consts  --      6.3309                 6.2223                 6.1782
 IR Inten    --     38.2665                21.1270                 5.9311

                     52                     53                     54
                      A                      A                      A
 Frequencies --   3145.2167              3218.7649              3219.5391
 Red. masses --      1.0637                 1.1156                 1.1151
 Frc consts  --      6.1994                 6.8098                 6.8103
 IR Inten    --      7.5197                10.6952                16.6154

 - Thermochemistry -
 -------------------
 Temperature   298.150 Kelvin.  Pressure   1.00000 Atm.
 Atom     1 has atomic number  6 and mass  12.00000

 Molecular mass:   108.09390 amu.
 Principal axes and moments of inertia in atomic units:
                           1         2         3
     Eigenvalues --   646.037721063.870441371.66532
           X            0.99988   0.01494  -0.00350
           Y           -0.01494   0.99989  -0.00163
           Z            0.00348   0.00169   0.99999
 This molecule is an asymmetric top.
 Rotational symmetry number  1.
 Warning -- assumption of classical behavior for rotation
           may cause significant error
 Rotational temperatures (Kelvin)      0.13407     0.08141     0.06315
 Rotational constants (GHZ):           2.79355     1.69639     1.31573
 Zero-point vibrational energy     463662.6 (Joules/Mol)
                                  110.81801 (Kcal/Mol)
 Warning -- explicit consideration of  10 degrees of freedom as
           vibrations may cause significant error
 Vibrational temperatures:     92.92   138.22   160.30   297.10   361.08
          (Kelvin)            436.36   570.95   710.08   766.23   865.82
                              924.70  1058.43  1107.59  1170.98  1309.59
                             1348.87  1357.61  1364.78  1366.16  1408.73
                             1477.53  1483.10  1492.66  1529.57  1558.28
                             1615.33  1671.40  1734.71  1765.85  1807.92
                             1827.81  1836.78  1918.13  1929.49  1956.97
                             1985.70  2092.63  2097.50  2141.94  2168.64
                             2448.44  2451.45  4330.86  4355.99  4402.69
                             4410.10  4462.35  4476.21  4484.06  4492.04
                             4520.38  4525.27  4631.08  4632.20

 Zero-point correction=                           0.176600 (Hartree/Particle)
 Thermal correction to Energy=                    0.185046
 Thermal correction to Enthalpy=                  0.185990
 Thermal correction to Gibbs Free Energy=         0.143304
 Sum of electronic and zero-point Energies=           -311.940205
 Sum of electronic and thermal Energies=              -311.931759
 Sum of electronic and thermal Enthalpies=            -311.930815
 Sum of electronic and thermal Free Energies=         -311.973501

                     E (Thermal)             CV                S
                      KCal/Mol        Cal/Mol-Kelvin    Cal/Mol-Kelvin
 Total                  116.118             31.630             89.841
 Electronic               0.000              0.000              0.000
 Translational            0.889              2.981             39.950
 Rotational               0.889              2.981             28.335
 Vibrational            114.341             25.669             21.556
 Vibration     1          0.597              1.971              4.312
 Vibration     2          0.603              1.952              3.533
 Vibration     3          0.607              1.940              3.244
 Vibration     4          0.641              1.831              2.074
 Vibration     5          0.663              1.761              1.724
 Vibration     6          0.695              1.667              1.399
 Vibration     7          0.763              1.477              0.974
 Vibration     8          0.849              1.264              0.674
 Vibration     9          0.888              1.178              0.582
 Vibration    10          0.960              1.028              0.447

                           ! Non-Optimized Parameters !
 Normal termination of Gaussian 16 at Fri Jun 10 21:50:26 2022.
