 Gaussian 16, Revision A.03,
 Gaussian 16:  ES64L-G16RevA.03 25-Dec-2016

 ----------------------------------------------------------------------
 # Opt=(Z-matrix, MaxStep=10) B3LYP/Def2TZVP geom=allcheckpoint guess=r
 ead Field=read NoSymm freq=noraman pop=none
 ----------------------------------------------------------------------

 Structure from the checkpoint file:  "checkpoint.chk"
 ------------------
 int_zmat_initalOpt
 ------------------
 Charge =  0 Multiplicity = 1

 SCF Done:  E(RB3LYP) =  -573.639591667     A.U. after   11 cycles
 SCF Done:  E(RB3LYP) =  -573.639688500     A.U. after   11 cycles
 SCF Done:  E(RB3LYP) =  -573.639709338     A.U. after   10 cycles
 SCF Done:  E(RB3LYP) =  -573.639728255     A.U. after   10 cycles
 SCF Done:  E(RB3LYP) =  -573.639732738     A.U. after    8 cycles
 SCF Done:  E(RB3LYP) =  -573.639737290     A.U. after    9 cycles
 SCF Done:  E(RB3LYP) =  -573.639740994     A.U. after    9 cycles
 SCF Done:  E(RB3LYP) =  -573.639742538     A.U. after   10 cycles
 SCF Done:  E(RB3LYP) =  -573.639746166     A.U. after    8 cycles
 SCF Done:  E(RB3LYP) =  -573.639733529     A.U. after   10 cycles
 SCF Done:  E(RB3LYP) =  -573.639748354     A.U. after    9 cycles
 SCF Done:  E(RB3LYP) =  -573.639749668     A.U. after    8 cycles
 SCF Done:  E(RB3LYP) =  -573.639720594     A.U. after   12 cycles
 SCF Done:  E(RB3LYP) =  -573.639751299     A.U. after   12 cycles
 SCF Done:  E(RB3LYP) =  -573.639752329     A.U. after    9 cycles
 SCF Done:  E(RB3LYP) =  -573.639752645     A.U. after    7 cycles
 SCF Done:  E(RB3LYP) =  -573.639751730     A.U. after    9 cycles
 SCF Done:  E(RB3LYP) =  -573.639752824     A.U. after    7 cycles
 SCF Done:  E(RB3LYP) =  -573.639752874     A.U. after    7 cycles
 Optimization completed.
    -- Stationary point found.
 Normal termination of Gaussian 16 at Sun Jun 12 04:58:29 2022.

 --------------------------------------------------------------------
 #N Geom=AllCheck Guess=TCheck SCRF=Check GenChk RB3LYP/def2TZVP Freq
 --------------------------------------------------------------------

 Structure from the checkpoint file:  "checkpoint.chk"
 ------------------
 int_zmat_initalOpt
 ------------------
 Charge =  0 Multiplicity = 1

                          Input orientation:
 ---------------------------------------------------------------------
 Center     Atomic      Atomic             Coordinates (Angstroms)
 Number     Number       Type             X           Y           Z
 ---------------------------------------------------------------------
      1          6           0        0.000000    0.000000    0.000000
      2          6           0        0.000000    0.000000    1.480131
      3          6           0        1.270534    0.000000   -0.412945
      4          1           0       -0.907902    0.065228   -0.577112
      5          8           0       -0.926502   -0.019818    2.241701
      6          6           0        2.144034   -0.126740    0.778902
      7          1           0        1.675938    0.019221   -1.411641
      8          8           0        1.306173   -0.067647    1.908157
      9          8           0        3.308491   -0.336168    0.874970
     10          6           0       -0.032624    3.579814   -0.079197
     11          6           0        0.658104    3.380145    1.062471
     12          6           0        0.905218    3.478050   -1.244689
     13          1           0       -1.074895    3.850805   -0.162531
     14          6           0        2.052005    3.099878    0.740090
     15          1           0        0.263758    3.450846    2.066432
     16          1           0        0.582265    2.763960   -2.011284
     17          1           0        0.988235    4.442979   -1.762677
     18          6           0        2.211896    3.123812   -0.600730
     19          1           0        2.834696    2.943437    1.468615
     20          1           0        3.140634    3.005204   -1.139053
 ---------------------------------------------------------------------

 SCF Done:  E(RB3LYP) =  -573.639752874     A.U. after    1 cycles

 Isotropic polarizability for W=    0.000000      120.23 Bohr**3.
 End of Minotr F.D. properties file   721 does not exist.

                      1                      2                      3
                      A                      A                      A
 Frequencies --     22.8991                37.2488                58.6584
 Red. masses --      4.1515                 6.1104                 5.7632
 Frc consts  --      0.0013                 0.0050                 0.0117
 IR Inten    --      0.3790                 0.4264                 0.2193

                      4                      5                      6
                      A                      A                      A
 Frequencies --     68.4774                89.2762                95.9794
 Red. masses --      4.1989                 5.0181                 4.1279
 Frc consts  --      0.0116                 0.0236                 0.0224
 IR Inten    --      9.8315                 5.9596                 7.2097

                      7                      8                      9
                      A                      A                      A
 Frequencies --    176.7521               294.3228               354.7114
 Red. masses --     15.2351                 4.1309                 1.4949
 Frc consts  --      0.2804                 0.2108                 0.1108
 IR Inten    --      7.6601                 0.8385                 7.8644

                     10                     11                     12
                      A                      A                      A
 Frequencies --    405.2741               527.3169               566.8054
 Red. masses --     12.5380                 2.4342                 4.6700
 Frc consts  --      1.2133                 0.3988                 0.8840
 IR Inten    --      8.9357                 0.0034                 3.7295

                     13                     14                     15
                      A                      A                      A
 Frequencies --    632.2029               649.6790               688.7832
 Red. masses --      7.2522                 2.5408                 1.2103
 Frc consts  --      1.7078                 0.6319                 0.3383
 IR Inten    --      6.0946                17.1307                63.2400

                     16                     17                     18
                      A                      A                      A
 Frequencies --    705.7184               737.3260               775.8760
 Red. masses --      8.0755                 1.2513                 6.2963
 Frc consts  --      2.3696                 0.4008                 2.2332
 IR Inten    --     39.6740                 4.8243                 0.8318

                     19                     20                     21
                      A                      A                      A
 Frequencies --    818.4258               822.8286               840.5269
 Red. masses --      4.9219                 5.5406                 2.1145
 Frc consts  --      1.9424                 2.2102                 0.8802
 IR Inten    --     10.3496                 3.7115                58.8865

                     22                     23                     24
                      A                      A                      A
 Frequencies --    869.0111               907.0170               916.6747
 Red. masses --      9.2622                 9.5430                 1.8003
 Frc consts  --      4.1211                 4.6256                 0.8913
 IR Inten    --     38.2932                89.0122                40.1006

                     25                     26                     27
                      A                      A                      A
 Frequencies --    930.3981               959.9905               961.8729
 Red. masses --      2.0449                 1.4050                 1.3580
 Frc consts  --      1.0429                 0.7629                 0.7403
 IR Inten    --      9.2323                 8.0159                 0.8732

                     28                     29                     30
                      A                      A                      A
 Frequencies --    969.1723               980.1036              1023.8809
 Red. masses --      1.4992                 1.4005                 2.4338
 Frc consts  --      0.8297                 0.7926                 1.5033
 IR Inten    --      7.5676                 1.6976                 8.3045

                     31                     32                     33
                      A                      A                      A
 Frequencies --   1055.6018              1081.1011              1115.5245
 Red. masses --      2.5853                 1.2538                 1.1345
 Frc consts  --      1.6973                 0.8634                 0.8318
 IR Inten    --     27.0241                23.1249                 0.5132

                     34                     35                     36
                      A                      A                      A
 Frequencies --   1127.5034              1135.9189              1261.7294
 Red. masses --      1.1449                 1.2680                 7.1046
 Frc consts  --      0.8575                 0.9640                 6.6638
 IR Inten    --      2.3687                 7.3755               175.9480

                     37                     38                     39
                      A                      A                      A
 Frequencies --   1275.5946              1325.3951              1335.9053
 Red. masses --      1.7057                 1.6317                 1.7823
 Frc consts  --      1.6353                 1.6889                 1.8740
 IR Inten    --      3.3846                 1.7568                 2.3938

                     40                     41                     42
                      A                      A                      A
 Frequencies --   1400.0089              1415.7162              1526.2739
 Red. masses --      1.2565                 1.6649                 5.0458
 Frc consts  --      1.4510                 1.9661                 6.9255
 IR Inten    --     53.9276                 1.7904                87.7024

                     43                     44                     45
                      A                      A                      A
 Frequencies --   1615.4140              1620.2724              1811.4171
 Red. masses --      5.0652                 6.2074                12.6660
 Frc consts  --      7.7877                 9.6014                24.4866
 IR Inten    --     14.6379                35.1734               615.1113

                     46                     47                     48
                      A                      A                      A
 Frequencies --   1889.2813              3014.2880              3033.8575
 Red. masses --     12.6451                 1.0624                 1.0960
 Frc consts  --     26.5930                 5.6874                 5.9437
 IR Inten    --    210.8351                 3.9050                11.3394

                     49                     50                     51
                      A                      A                      A
 Frequencies --   3199.9310              3212.0185              3223.5970
 Red. masses --      1.0868                 1.0894                 1.0998
 Frc consts  --      6.5569                 6.6223                 6.7337
 IR Inten    --      2.6213                 2.1866                 5.8722

                     52                     53                     54
                      A                      A                      A
 Frequencies --   3232.8919              3242.9754              3262.1762
 Red. masses --      1.1045                 1.0895                 1.1072
 Frc consts  --      6.8017                 6.7511                 6.9424
 IR Inten    --      1.5953                 0.7658                 2.4180

 - Thermochemistry -
 -------------------
 Temperature   298.150 Kelvin.  Pressure   1.00000 Atm.
 Atom     1 has atomic number  6 and mass  12.00000

 Molecular mass:   164.04734 amu.
 Principal axes and moments of inertia in atomic units:
                           1         2         3
     Eigenvalues --  1330.836142296.218262837.43524
           X            0.03615   0.95061   0.30827
           Y            0.91582  -0.15497   0.37048
           Z           -0.39995  -0.26892   0.87619
 This molecule is an asymmetric top.
 Rotational symmetry number  1.
 Warning -- assumption of classical behavior for rotation
           may cause significant error
 Rotational temperatures (Kelvin)      0.06508     0.03772     0.03053
 Rotational constants (GHZ):           1.35610     0.78596     0.63605
 Zero-point vibrational energy     390590.3 (Joules/Mol)
                                   93.35333 (Kcal/Mol)
 Warning -- explicit consideration of  12 degrees of freedom as
           vibrations may cause significant error
 Vibrational temperatures:     32.95    53.59    84.40    98.52   128.45
          (Kelvin)            138.09   254.31   423.46   510.35   583.10
                              758.69   815.51   909.60   934.74   991.01
                             1015.37  1060.85  1116.31  1177.53  1183.87
                             1209.33  1250.31  1305.00  1318.89  1338.64
                             1381.21  1383.92  1394.42  1410.15  1473.14
                             1518.78  1555.46  1604.99  1622.23  1634.33
                             1815.35  1835.30  1906.95  1922.07  2014.30
                             2036.90  2195.97  2324.22  2331.21  2606.23
                             2718.25  4336.89  4365.04  4603.99  4621.38
                             4638.04  4651.41  4665.92  4693.54

 Zero-point correction=                           0.148768 (Hartree/Particle)
 Thermal correction to Energy=                    0.160047
 Thermal correction to Enthalpy=                  0.160992
 Thermal correction to Gibbs Free Energy=         0.108539
 Sum of electronic and zero-point Energies=           -573.490985
 Sum of electronic and thermal Energies=              -573.479705
 Sum of electronic and thermal Enthalpies=            -573.478761
 Sum of electronic and thermal Free Energies=         -573.531214

                     E (Thermal)             CV                S
                      KCal/Mol        Cal/Mol-Kelvin    Cal/Mol-Kelvin
 Total                  100.431             39.870            110.396
 Electronic               0.000              0.000              0.000
 Translational            0.889              2.981             41.193
 Rotational               0.889              2.981             30.540
 Vibrational             98.654             33.908             38.663
 Vibration     1          0.593              1.985              6.365
 Vibration     2          0.594              1.982              5.400
 Vibration     3          0.596              1.974              4.502
 Vibration     4          0.598              1.969              4.197
 Vibration     5          0.602              1.957              3.676
 Vibration     6          0.603              1.952              3.534
 Vibration     7          0.628              1.871              2.362
 Vibration     8          0.689              1.684              1.449
 Vibration     9          0.731              1.566              1.145
 Vibration    10          0.770              1.459              0.943
 Vibration    11          0.882              1.190              0.593
 Vibration    12          0.923              1.103              0.510

                       ! Non-Optimized Parameters !
 Normal termination of Gaussian 16 at Sun Jun 12 05:16:22 2022.
