 Gaussian 16, Revision A.03,
 Gaussian 16:  ES64L-G16RevA.03 25-Dec-2016

 ----------------------------------------------------------------------
 # Opt=(Z-matrix, MaxStep=10) B3LYP/Def2TZVP geom=allcheckpoint guess=r
 ead Field=read NoSymm freq=noraman pop=none
 ----------------------------------------------------------------------

 Structure from the checkpoint file:  "checkpoint.chk"
 ------------------
 int_zmat_initalOpt
 ------------------
 Charge =  0 Multiplicity = 1

 SCF Done:  E(RB3LYP) =  -573.632155619     A.U. after   11 cycles
 SCF Done:  E(RB3LYP) =  -573.632236013     A.U. after   10 cycles
 SCF Done:  E(RB3LYP) =  -573.632261943     A.U. after   11 cycles
 SCF Done:  E(RB3LYP) =  -573.632282337     A.U. after   10 cycles
 SCF Done:  E(RB3LYP) =  -573.632285268     A.U. after    8 cycles
 SCF Done:  E(RB3LYP) =  -573.632287504     A.U. after    8 cycles
 SCF Done:  E(RB3LYP) =  -573.632283182     A.U. after   10 cycles
 SCF Done:  E(RB3LYP) =  -573.632290234     A.U. after    9 cycles
 SCF Done:  E(RB3LYP) =  -573.632291625     A.U. after    8 cycles
 SCF Done:  E(RB3LYP) =  -573.632280985     A.U. after   11 cycles
 SCF Done:  E(RB3LYP) =  -573.632289605     A.U. after    9 cycles
 SCF Done:  E(RB3LYP) =  -573.632293939     A.U. after   10 cycles
 SCF Done:  E(RB3LYP) =  -573.632294191     A.U. after    7 cycles
 SCF Done:  E(RB3LYP) =  -573.632294324     A.U. after    7 cycles
 SCF Done:  E(RB3LYP) =  -573.632294054     A.U. after    8 cycles
 SCF Done:  E(RB3LYP) =  -573.632294446     A.U. after    6 cycles
 SCF Done:  E(RB3LYP) =  -573.632294516     A.U. after    6 cycles
 SCF Done:  E(RB3LYP) =  -573.632294617     A.U. after    7 cycles
 SCF Done:  E(RB3LYP) =  -573.632294663     A.U. after    7 cycles
 Optimization completed.
    -- Stationary point found.
 Normal termination of Gaussian 16 at Sun Jun 12 03:12:12 2022.

 --------------------------------------------------------------------
 #N Geom=AllCheck Guess=TCheck SCRF=Check GenChk RB3LYP/def2TZVP Freq
 --------------------------------------------------------------------

 Structure from the checkpoint file:  "checkpoint.chk"
 ------------------
 int_zmat_initalOpt
 ------------------
 Charge =  0 Multiplicity = 1

                          Input orientation:
 ---------------------------------------------------------------------
 Center     Atomic      Atomic             Coordinates (Angstroms)
 Number     Number       Type             X           Y           Z
 ---------------------------------------------------------------------
      1          6           0        0.000000    0.000000    0.000000
      2          6           0        0.000000    0.000000    1.483989
      3          6           0        1.265489    0.000000   -0.414112
      4          1           0       -0.911828    0.030894   -0.574007
      5          8           0       -0.919164   -0.015462    2.246379
      6          6           0        2.145794   -0.060751    0.780233
      7          1           0        1.666253    0.011379   -1.415003
      8          8           0        1.315863   -0.030308    1.906516
      9          8           0        3.325542   -0.168187    0.866487
     10          6           0       -0.284889    3.638025   -0.105165
     11          6           0        0.373161    3.471268    1.058158
     12          6           0        0.705151    3.644911   -1.232547
     13          1           0       -1.346458    3.793509   -0.229870
     14          6           0        1.803604    3.334088    0.789243
     15          1           0       -0.069036    3.457956    2.044526
     16          1           0        0.488091    2.892484   -2.000420
     17          1           0        0.703251    4.608650   -1.757700
     18          6           0        2.015296    3.415121   -0.538423
     19          1           0        2.563169    3.209591    1.547905
     20          1           0        2.969567    3.378423   -1.042500
 ---------------------------------------------------------------------

 SCF Done:  E(RB3LYP) =  -573.632294663     A.U. after    1 cycles

 Isotropic polarizability for W=    0.000000      112.39 Bohr**3.
 End of Minotr F.D. properties file   721 does not exist.

                      1                      2                      3
                      A                      A                      A
 Frequencies --     14.8918                34.1634                45.0320
 Red. masses --      4.0625                 6.7238                 6.3638
 Frc consts  --      0.0005                 0.0046                 0.0076
 IR Inten    --      0.4994                 0.1397                 0.0252

                      4                      5                      6
                      A                      A                      A
 Frequencies --     52.8518                73.5666                76.7112
 Red. masses --      4.3709                 4.2235                 3.9796
 Frc consts  --      0.0072                 0.0135                 0.0138
 IR Inten    --     11.5669                 3.7653                 4.3505

                      7                      8                      9
                      A                      A                      A
 Frequencies --    172.6175               281.6052               353.0877
 Red. masses --     15.2834                 4.0761                 1.4999
 Frc consts  --      0.2683                 0.1904                 0.1102
 IR Inten    --      6.6495                 0.1556                 8.1360

                     10                     11                     12
                      A                      A                      A
 Frequencies --    404.4962               528.0025               564.9538
 Red. masses --     12.8521                 2.3922                 4.6902
 Frc consts  --      1.2389                 0.3929                 0.8820
 IR Inten    --      8.7361                 0.0597                 3.3836

                     13                     14                     15
                      A                      A                      A
 Frequencies --    635.9395               646.5714               689.0564
 Red. masses --      7.5094                 2.5007                 1.1945
 Frc consts  --      1.7893                 0.6159                 0.3342
 IR Inten    --      1.4949                 7.3300                79.1006

                     16                     17                     18
                      A                      A                      A
 Frequencies --    703.2984               728.1660               782.1806
 Red. masses --      8.6717                 1.2617                 6.7791
 Frc consts  --      2.5272                 0.3941                 2.4437
 IR Inten    --     41.8239                 2.2813                 0.2960

                     19                     20                     21
                      A                      A                      A
 Frequencies --    818.8536               821.6029               853.0588
 Red. masses --      5.0448                 5.5785                 2.0295
 Frc consts  --      1.9930                 2.2187                 0.8702
 IR Inten    --      3.2488                 3.2929                69.1952

                     22                     23                     24
                      A                      A                      A
 Frequencies --    873.5066               901.9430               918.7565
 Red. masses --      9.3808                10.0054                 1.8404
 Frc consts  --      4.2172                 4.7956                 0.9153
 IR Inten    --     18.8325               110.6046                41.3208

                     25                     26                     27
                      A                      A                      A
 Frequencies --    927.8012               962.1806               969.0268
 Red. masses --      2.0945                 1.3757                 1.4799
 Frc consts  --      1.0623                 0.7504                 0.8187
 IR Inten    --     10.3359                 2.6994                 7.6958

                     28                     29                     30
                      A                      A                      A
 Frequencies --    974.6632               978.3010              1018.3361
 Red. masses --      1.4134                 1.3409                 2.5469
 Frc consts  --      0.7911                 0.7561                 1.5561
 IR Inten    --      3.1759                 0.5099                 1.9341

                     31                     32                     33
                      A                      A                      A
 Frequencies --   1057.6036              1080.4518              1115.9010
 Red. masses --      2.9714                 1.1929                 1.1298
 Frc consts  --      1.9582                 0.8205                 0.8289
 IR Inten    --     35.2036                17.6535                 0.9782

                     34                     35                     36
                      A                      A                      A
 Frequencies --   1125.8490              1135.0047              1262.4032
 Red. masses --      1.1418                 1.2576                 6.8853
 Frc consts  --      0.8527                 0.9546                 6.4650
 IR Inten    --      1.0637                 2.5797               137.1579

                     37                     38                     39
                      A                      A                      A
 Frequencies --   1271.9359              1323.9648              1336.3212
 Red. masses --      1.7354                 1.6047                 1.7612
 Frc consts  --      1.6542                 1.6572                 1.8531
 IR Inten    --      3.0088                 1.3586                 2.0441

                     40                     41                     42
                      A                      A                      A
 Frequencies --   1401.2893              1414.6675              1537.8858
 Red. masses --      1.3738                 1.4706                 5.3352
 Frc consts  --      1.5893                 1.7340                 7.4344
 IR Inten    --     39.0548                 2.0655                27.3229

                     43                     44                     45
                      A                      A                      A
 Frequencies --   1627.0459              1639.6804              1828.5284
 Red. masses --      5.0578                 6.5128                12.7677
 Frc consts  --      7.8888                10.3167                25.1517
 IR Inten    --      1.8358                15.1141               600.1886

                     46                     47                     48
                      A                      A                      A
 Frequencies --   1896.3867              3015.1819              3033.3918
 Red. masses --     12.6171                 1.0609                 1.0975
 Frc consts  --     26.7340                 5.6827                 5.9497
 IR Inten    --    114.4463                 7.1146                 5.8734

                     49                     50                     51
                      A                      A                      A
 Frequencies --   3198.5557              3209.5307              3222.9134
 Red. masses --      1.0868                 1.0890                 1.1000
 Frc consts  --      6.5508                 6.6096                 6.7317
 IR Inten    --      1.9431                 3.1691                 7.1995

                     52                     53                     54
                      A                      A                      A
 Frequencies --   3231.6522              3242.1584              3261.5276
 Red. masses --      1.1047                 1.0895                 1.1082
 Frc consts  --      6.7973                 6.7474                 6.9454
 IR Inten    --      0.7110                 0.4180                 1.3328

 - Thermochemistry -
 -------------------
 Temperature   298.150 Kelvin.  Pressure   1.00000 Atm.
 Atom     1 has atomic number  6 and mass  12.00000

 Molecular mass:   164.04734 amu.
 Principal axes and moments of inertia in atomic units:
                           1         2         3
     Eigenvalues --  1340.768432407.527672949.56485
           X           -0.04486   0.95381   0.29703
           Y            0.92690  -0.07116   0.36849
           Z           -0.37261  -0.29185   0.88090
 This molecule is an asymmetric top.
 Rotational symmetry number  1.
 Warning -- assumption of classical behavior for rotation
           may cause significant error
 Rotational temperatures (Kelvin)      0.06460     0.03598     0.02936
 Rotational constants (GHZ):           1.34605     0.74962     0.61187
 Zero-point vibrational energy     390431.5 (Joules/Mol)
                                   93.31537 (Kcal/Mol)
 Warning -- explicit consideration of  12 degrees of freedom as
           vibrations may cause significant error
 Vibrational temperatures:     21.43    49.15    64.79    76.04   105.85
          (Kelvin)            110.37   248.36   405.17   508.01   581.98
                              759.68   812.84   914.98   930.27   991.40
                             1011.89  1047.67  1125.38  1178.15  1182.10
                             1227.36  1256.78  1297.69  1321.89  1334.90
                             1384.36  1394.21  1402.32  1407.56  1465.16
                             1521.66  1554.53  1605.53  1619.85  1633.02
                             1816.32  1830.03  1904.89  1922.67  2016.14
                             2035.39  2212.67  2340.96  2359.13  2630.84
                             2728.48  4338.17  4364.37  4602.01  4617.80
                             4637.05  4649.63  4664.74  4692.61

 Zero-point correction=                           0.148708 (Hartree/Particle)
 Thermal correction to Energy=                    0.160164
 Thermal correction to Enthalpy=                  0.161109
 Thermal correction to Gibbs Free Energy=         0.107185
 Sum of electronic and zero-point Energies=           -573.483587
 Sum of electronic and thermal Energies=              -573.472130
 Sum of electronic and thermal Enthalpies=            -573.471186
 Sum of electronic and thermal Free Energies=         -573.525109

                     E (Thermal)             CV                S
                      KCal/Mol        Cal/Mol-Kelvin    Cal/Mol-Kelvin
 Total                  100.505             39.917            113.491
 Electronic               0.000              0.000              0.000
 Translational            0.889              2.981             41.193
 Rotational               0.889              2.981             30.633
 Vibrational             98.727             33.956             41.665
 Vibration     1          0.593              1.986              7.220
 Vibration     2          0.594              1.983              5.572
 Vibration     3          0.595              1.979              5.024
 Vibration     4          0.596              1.976              4.708
 Vibration     5          0.599              1.966              4.056
 Vibration     6          0.599              1.965              3.973
 Vibration     7          0.626              1.876              2.407
 Vibration     8          0.681              1.708              1.524
 Vibration     9          0.729              1.569              1.152
 Vibration    10          0.770              1.460              0.946
 Vibration    11          0.883              1.188              0.592
 Vibration    12          0.921              1.107              0.514

                       ! Non-Optimized Parameters !
 Normal termination of Gaussian 16 at Sun Jun 12 03:29:16 2022.
