 Gaussian 16, Revision A.03,
 Gaussian 16:  ES64L-G16RevA.03 25-Dec-2016

 --------------------------
 # sp B3LYP/Def2TZVP NoSymm
 --------------------------

 ----------------------------
 int_initalOpt_zmat_AlignedSp
 ----------------------------
 Symbolic Z-matrix:
 Charge =  0 Multiplicity = 1

                          Input orientation:
 ---------------------------------------------------------------------
 Center     Atomic      Atomic             Coordinates (Angstroms)
 Number     Number       Type             X           Y           Z
 ---------------------------------------------------------------------
      1          6           0        0.000000    0.000000    0.000000
      2          6           0        0.000000    0.000000    1.485898
      3          6           0        1.262430    0.000000   -0.416122
      4          1           0       -0.914660   -0.001547   -0.570929
      5          8           0       -0.910484   -0.012809    2.251897
      6          6           0        2.146383   -0.000205    0.778091
      7          1           0        1.658043   -0.002305   -1.419194
      8          8           0        1.327041    0.005626    1.902185
      9          8           0        3.333841   -0.014338    0.852233
     10          6           0       -0.526137    3.748456    0.035778
     11          6           0        0.204029    3.582261    1.153360
     12          6           0        0.397248    3.874822   -1.140972
     13          1           0       -1.602717    3.803182   -0.030120
     14          6           0        1.626161    3.574826    0.804938
     15          1           0       -0.182175    3.470860    2.156746
     16          1           0        0.205219    3.113641   -1.907249
     17          1           0        0.278487    4.841036   -1.647266
     18          6           0        1.758757    3.736039   -0.523964
     19          1           0        2.431255    3.457442    1.516548
     20          1           0        2.683503    3.779000   -1.080100
 ---------------------------------------------------------------------

 SCF Done:  E(RB3LYP) =  -573.628844314     A.U. after   14 cycles

 Alpha  occ. eigenvalues --  -19.20454 -19.15296 -19.15292 -10.33543 -10.33539
 Alpha  occ. eigenvalues --  -10.23795 -10.23703 -10.19006 -10.18050 -10.18032
 Alpha  occ. eigenvalues --  -10.17955 -10.17923  -1.15447  -1.09390  -1.05474
 Alpha  occ. eigenvalues --   -0.87100  -0.85815  -0.71844  -0.71735  -0.70930
 Alpha  occ. eigenvalues --   -0.64481  -0.60760  -0.56494  -0.54230  -0.52809
 Alpha  occ. eigenvalues --   -0.52642  -0.51311  -0.49058  -0.47664  -0.45557
 Alpha  occ. eigenvalues --   -0.45182  -0.43253  -0.42440  -0.41139  -0.39047
 Alpha  occ. eigenvalues --   -0.37323  -0.37307  -0.35219  -0.33619  -0.33256
 Alpha  occ. eigenvalues --   -0.31633  -0.30457  -0.23742
 Alpha virt. eigenvalues --   -0.11802  -0.03900   0.01386   0.02369   0.03637
 Alpha virt. eigenvalues --    0.05486   0.05643   0.06091   0.06394   0.07498
 Alpha virt. eigenvalues --    0.08937   0.09647   0.10008   0.10168   0.12722

 Mulliken charges:
               1
     1  C   -0.133550
     2  C    0.308414
     3  C   -0.135030
     4  H    0.150565
     5  O   -0.226628
     6  C    0.307111
     7  H    0.150888
     8  O   -0.211187
     9  O   -0.225959
    10  C   -0.193424
    11  C   -0.118502
    12  C   -0.081331
    13  H    0.120279
    14  C   -0.123207
    15  H    0.130045
    16  H    0.098804
    17  H    0.119418
    18  C   -0.188133
    19  H    0.129936
    20  H    0.121491
 Sum of Mulliken charges =  -0.00000

 Dipole moment (field-independent basis, Debye):
    X=             -1.3952    Y=              0.7926    Z=             -4.3106  Tot=              4.5996
 Quadrupole moment (field-independent basis, Debye-Ang):
   XX=            -79.0527   YY=            -66.9918   ZZ=            -72.9788
   XY=              0.1942   XZ=             -1.6297   YZ=             -1.5559

 Normal termination of Gaussian 16 at Sun Jun 12 01:13:45 2022.
