 Gaussian 16, Revision A.03,
 Gaussian 16:  ES64L-G16RevA.03 25-Dec-2016

 ------------------------------------------
 # Opt B3LYP/Def2TZVP freq=noraman pop=none
 ------------------------------------------

 -------------
 int_initalOpt
 -------------
 Symbolic Z-matrix:
 Charge =  0 Multiplicity = 1

 SCF Done:  E(RB3LYP) =  -669.471105693     A.U. after   17 cycles
 SCF Done:  E(RB3LYP) =  -669.471105809     A.U. after    8 cycles
 SCF Done:  E(RB3LYP) =  -669.471105570     A.U. after    8 cycles
 SCF Done:  E(RB3LYP) =  -669.471105819     A.U. after    9 cycles
 Optimization completed.
    -- Stationary point found.
 Normal termination of Gaussian 16 at Fri Jun 10 02:35:18 2022.

 --------------------------------------------------------------------
 #N Geom=AllCheck Guess=TCheck SCRF=Check GenChk RB3LYP/def2TZVP Freq
 --------------------------------------------------------------------

 Structure from the checkpoint file:  "checkpoint.chk"
 -------------
 int_initalOpt
 -------------
 Charge =  0 Multiplicity = 1

                         Standard orientation:
 ---------------------------------------------------------------------
 Center     Atomic      Atomic             Coordinates (Angstroms)
 Number     Number       Type             X           Y           Z
 ---------------------------------------------------------------------
      1          6           0       -1.884639    0.373146   -1.360363
      2          6           0       -0.537088   -0.260058   -1.123757
      3          6           0       -2.138438   -0.387260    0.886051
      4          6           0       -2.716017    0.300997   -0.323126
      5          6           0        0.109153    0.440575    0.121495
      6          6           0       -0.849264    0.362736    1.308320
      7          1           0       -0.366420   -0.145982    2.141237
      8          1           0       -1.091510    1.374902    1.635439
      9          1           0       -2.840366   -0.413284    1.719430
     10          1           0        0.126331   -0.169343   -1.979832
     11          6           0       -1.733194   -1.824215    0.468987
     12          1           0       -1.252570   -2.321420    1.314224
     13          1           0       -2.623799   -2.401942    0.219014
     14          6           0       -0.770708   -1.746179   -0.742273
     15          1           0        0.182135   -2.231330   -0.519870
     16          1           0       -1.189269   -2.258758   -1.608935
     17          1           0       -3.722840    0.699525   -0.329303
     18          1           0       -2.128792    0.836713   -2.307314
     19          7           0        0.421158    1.881652   -0.381846
     20          8           0       -0.083181    2.758747    0.239784
     21          6           0        1.499865   -0.128442    0.425852
     22          8           0        1.870831   -0.496005    1.511156
     23          8           0        2.273658   -0.148894   -0.668807
     24          6           0        3.622072   -0.612030   -0.481680
     25          1           0        4.092043   -0.538136   -1.458169
     26          1           0        4.140740    0.014141    0.242966
     27          1           0        3.625306   -1.643069   -0.130070
 ---------------------------------------------------------------------

 SCF Done:  E(RB3LYP) =  -669.471105819     A.U. after    1 cycles

 Isotropic polarizability for W=    0.000000      124.71 Bohr**3.
 End of Minotr F.D. properties file   721 does not exist.

                      1                      2                      3
                      A                      A                      A
 Frequencies --     39.1371                41.5730                73.7388
 Red. masses --      8.9147                 5.7213                 3.9133
 Frc consts  --      0.0080                 0.0058                 0.0125
 IR Inten    --      0.0954                 1.7989                 0.2498

                      4                      5                      6
                      A                      A                      A
 Frequencies --    115.7378               137.5473               165.4800
 Red. masses --      2.8861                 1.1747                 3.8855
 Frc consts  --      0.0228                 0.0131                 0.0627
 IR Inten    --      1.2216                 0.0411                 2.3526

                      7                      8                      9
                      A                      A                      A
 Frequencies --    215.2852               235.8027               267.6651
 Red. masses --      5.0555                 2.0234                 5.8885
 Frc consts  --      0.1381                 0.0663                 0.2486
 IR Inten    --      1.4102                 0.7914                 6.4013

                     10                     11                     12
                      A                      A                      A
 Frequencies --    326.4115               333.6303               351.6111
 Red. masses --      4.1846                 5.9244                 4.6554
 Frc consts  --      0.2627                 0.3885                 0.3391
 IR Inten    --     12.0601                 5.6400                 1.8505

                     13                     14                     15
                      A                      A                      A
 Frequencies --    376.6090               401.6453               450.9331
 Red. masses --      2.9140                 2.0937                 4.5002
 Frc consts  --      0.2435                 0.1990                 0.5391
 IR Inten    --      2.1298                 3.6559                10.1522

                     16                     17                     18
                      A                      A                      A
 Frequencies --    476.5217               593.7918               625.3169
 Red. masses --      4.4917                 5.1306                 5.0738
 Frc consts  --      0.6009                 1.0658                 1.1689
 IR Inten    --      4.9790                 7.3798                 8.6559

                     19                     20                     21
                      A                      A                      A
 Frequencies --    647.7751               678.1516               718.9408
 Red. masses --      4.7786                 3.4040                 3.7310
 Frc consts  --      1.1814                 0.9223                 1.1362
 IR Inten    --      0.0117                 2.3180                37.0884

                     22                     23                     24
                      A                      A                      A
 Frequencies --    735.2604               775.5536               824.7869
 Red. masses --      2.0683                 3.8424                 3.6491
 Frc consts  --      0.6588                 1.3617                 1.4626
 IR Inten    --     25.3811                 7.6844                 9.1277

                     25                     26                     27
                      A                      A                      A
 Frequencies --    828.7595               843.5632               876.0269
 Red. masses --      1.5826                 3.3153                 2.6200
 Frc consts  --      0.6405                 1.3900                 1.1846
 IR Inten    --      3.6545                31.1901                10.9931

                     28                     29                     30
                      A                      A                      A
 Frequencies --    903.9761               952.8050               970.8856
 Red. masses --      3.2059                 2.6522                 1.4608
 Frc consts  --      1.5435                 1.4186                 0.8113
 IR Inten    --     19.7844                 5.6847                 0.4851

                     31                     32                     33
                      A                      A                      A
 Frequencies --    976.0313               987.6996               994.2368
 Red. masses --      1.9198                 3.6167                 3.1158
 Frc consts  --      1.0776                 2.0788                 1.8147
 IR Inten    --      0.4519                 2.4034                 1.1436

                     34                     35                     36
                      A                      A                      A
 Frequencies --   1019.7620              1035.0277              1063.8697
 Red. masses --      2.5884                 4.3812                 2.9147
 Frc consts  --      1.5859                 2.7653                 1.9437
 IR Inten    --      1.7075                 6.1836                 1.0553

                     37                     38                     39
                      A                      A                      A
 Frequencies --   1109.3039              1115.7102              1151.0880
 Red. masses --      1.8797                 2.1857                 1.0962
 Frc consts  --      1.3628                 1.6031                 0.8558
 IR Inten    --     13.2904                61.8891                 4.4775

                     40                     41                     42
                      A                      A                      A
 Frequencies --   1173.3727              1195.3386              1198.7147
 Red. masses --      1.2795                 1.6190                 1.1990
 Frc consts  --      1.0379                 1.3630                 1.0150
 IR Inten    --      1.2800               127.2847                 3.5668

                     43                     44                     45
                      A                      A                      A
 Frequencies --   1214.6584              1244.8188              1254.3527
 Red. masses --      1.6114                 1.2436                 1.6707
 Frc consts  --      1.4008                 1.1354                 1.5488
 IR Inten    --     49.6119                 7.2001               117.6248

                     46                     47                     48
                      A                      A                      A
 Frequencies --   1268.8697              1284.1423              1312.4073
 Red. masses --      1.7357                 1.6501                 1.4028
 Frc consts  --      1.6465                 1.6032                 1.4236
 IR Inten    --     77.3716                22.9067                14.6959

                     49                     50                     51
                      A                      A                      A
 Frequencies --   1338.1420              1341.0550              1369.1430
 Red. masses --      1.3021                 1.4422                 1.3854
 Frc consts  --      1.3737                 1.5282                 1.5302
 IR Inten    --      1.5619                 2.8321                 0.2957

                     52                     53                     54
                      A                      A                      A
 Frequencies --   1379.8425              1402.2275              1472.2469
 Red. masses --      1.6296                 1.6846                 1.1889
 Frc consts  --      1.8281                 1.9516                 1.5182
 IR Inten    --      0.9150                 6.5957                11.4097

                     55                     56                     57
                      A                      A                      A
 Frequencies --   1485.6207              1492.3598              1496.3708
 Red. masses --      1.0461                 1.0760                 1.0480
 Frc consts  --      1.3603                 1.4119                 1.3826
 IR Inten    --      8.7318                 1.2347                 9.4920

                     58                     59                     60
                      A                      A                      A
 Frequencies --   1500.1424              1514.2071              1672.2905
 Red. masses --      1.0814                 1.0930                 9.1900
 Frc consts  --      1.4339                 1.4766                15.1422
 IR Inten    --      9.4635                 5.1483               105.0162

                     61                     62                     63
                      A                      A                      A
 Frequencies --   1679.3488              1779.9734              3039.3841
 Red. masses --      7.3346                11.7578                 1.0617
 Frc consts  --     12.1873                21.9485                 5.7786
 IR Inten    --     76.6028               196.0442                23.9608

                     64                     65                     66
                      A                      A                      A
 Frequencies --   3051.0565              3055.9760              3064.5571
 Red. masses --      1.0616                 1.0295                 1.0638
 Frc consts  --      5.8228                 5.6649                 5.8862
 IR Inten    --     42.5236                31.1228                 3.0989

                     67                     68                     69
                      A                      A                      A
 Frequencies --   3071.9563              3080.7788              3092.5319
 Red. masses --      1.1028                 1.0851                 1.1044
 Frc consts  --      6.1316                 6.0679                 6.2230
 IR Inten    --      0.1432                47.5201                43.2199

                     70                     71                     72
                      A                      A                      A
 Frequencies --   3110.9994              3121.1448              3127.0917
 Red. masses --      1.1007                 1.0867                 1.1069
 Frc consts  --      6.2763                 6.2369                 6.3771
 IR Inten    --      2.5852                 8.6575                15.5141

                     73                     74                     75
                      A                      A                      A
 Frequencies --   3159.8506              3171.2530              3193.7271
 Red. masses --      1.1064                 1.0860                 1.1012
 Frc consts  --      6.5085                 6.4351                 6.6180
 IR Inten    --     11.5399                 6.4479                16.8516

 - Thermochemistry -
 -------------------
 Temperature   298.150 Kelvin.  Pressure   1.00000 Atm.
 Atom     1 has atomic number  6 and mass  12.00000

 Molecular mass:   195.08954 amu.
 Principal axes and moments of inertia in atomic units:
                           1         2         3
     Eigenvalues --  1605.237242887.882873378.35821
           X            0.99989  -0.00295  -0.01477
           Y            0.00313   0.99992   0.01219
           Z            0.01473  -0.01223   0.99982
 This molecule is an asymmetric top.
 Rotational symmetry number  1.
 Warning -- assumption of classical behavior for rotation
           may cause significant error
 Rotational temperatures (Kelvin)      0.05396     0.02999     0.02564
 Rotational constants (GHZ):           1.12428     0.62494     0.53421
 Zero-point vibrational energy     579277.3 (Joules/Mol)
                                  138.45060 (Kcal/Mol)
 Warning -- explicit consideration of  17 degrees of freedom as
           vibrations may cause significant error
 Vibrational temperatures:     56.31    59.81   106.09   166.52   197.90
          (Kelvin)            238.09   309.75   339.27   385.11   469.63
                              480.02   505.89   541.86   577.88   648.79
                              685.61   854.33   899.69   932.00   975.71
                             1034.40  1057.88  1115.85  1186.68  1192.40
                             1213.70  1260.41  1300.62  1370.87  1396.89
                             1404.29  1421.08  1430.49  1467.21  1489.17
                             1530.67  1596.04  1605.26  1656.16  1688.22
                             1719.83  1724.68  1747.62  1791.02  1804.73
                             1825.62  1847.59  1888.26  1925.29  1929.48
                             1969.89  1985.29  2017.49  2118.23  2137.48
                             2147.17  2152.94  2158.37  2178.61  2406.05
                             2416.21  2560.98  4373.00  4389.79  4396.87
                             4409.21  4419.86  4432.55  4449.46  4476.03
                             4490.63  4499.19  4546.32  4562.73  4595.06

 Zero-point correction=                           0.220635 (Hartree/Particle)
 Thermal correction to Energy=                    0.233485
 Thermal correction to Enthalpy=                  0.234429
 Thermal correction to Gibbs Free Energy=         0.180670
 Sum of electronic and zero-point Energies=           -669.250471
 Sum of electronic and thermal Energies=              -669.237621
 Sum of electronic and thermal Enthalpies=            -669.236677
 Sum of electronic and thermal Free Energies=         -669.290436

                     E (Thermal)             CV                S
                      KCal/Mol        Cal/Mol-Kelvin    Cal/Mol-Kelvin
 Total                  146.514             48.931            113.145
 Electronic               0.000              0.000              0.000
 Translational            0.889              2.981             41.710
 Rotational               0.889              2.981             31.127
 Vibrational            144.736             42.969             40.308
 Vibration     1          0.594              1.981              5.302
 Vibration     2          0.594              1.981              5.183
 Vibration     3          0.599              1.966              4.051
 Vibration     4          0.608              1.936              3.170
 Vibration     5          0.614              1.916              2.838
 Vibration     6          0.624              1.885              2.486
 Vibration     7          0.645              1.818              1.998
 Vibration     8          0.655              1.786              1.834
 Vibration     9          0.673              1.733              1.611
 Vibration    10          0.710              1.623              1.278
 Vibration    11          0.715              1.608              1.242
 Vibration    12          0.728              1.572              1.159
 Vibration    13          0.747              1.520              1.053
 Vibration    14          0.767              1.467              0.957
 Vibration    15          0.810              1.359              0.793
 Vibration    16          0.833              1.302              0.720
 Vibration    17          0.951              1.045              0.460

                           ! Non-Optimized Parameters !
 Normal termination of Gaussian 16 at Fri Jun 10 03:17:32 2022.
