 Gaussian 16, Revision A.03,
 Gaussian 16:  ES64L-G16RevA.03 25-Dec-2016

 ----------------------------------------------------------------------
 # Opt=(Z-matrix, MaxStep=10) B3LYP/Def2TZVP geom=allcheckpoint guess=r
 ead Field=read NoSymm freq=noraman pop=none
 ----------------------------------------------------------------------

 Structure from the checkpoint file:  "checkpoint.chk"
 ------------------
 int_zmat_initalOpt
 ------------------
 Charge =  0 Multiplicity = 1

 SCF Done:  E(RB3LYP) =  -312.118648228     A.U. after   10 cycles
 SCF Done:  E(RB3LYP) =  -312.118657207     A.U. after    8 cycles
 SCF Done:  E(RB3LYP) =  -312.118659216     A.U. after    7 cycles
 SCF Done:  E(RB3LYP) =  -312.118660094     A.U. after    7 cycles
 SCF Done:  E(RB3LYP) =  -312.118660885     A.U. after    8 cycles
 SCF Done:  E(RB3LYP) =  -312.118661331     A.U. after    7 cycles
 Optimization completed.
    -- Stationary point found.
 Normal termination of Gaussian 16 at Fri Jun 10 23:49:58 2022.

 --------------------------------------------------------------------
 #N Geom=AllCheck Guess=TCheck SCRF=Check GenChk RB3LYP/def2TZVP Freq
 --------------------------------------------------------------------

 Structure from the checkpoint file:  "checkpoint.chk"
 ------------------
 int_zmat_initalOpt
 ------------------
 Charge =  0 Multiplicity = 1

                          Input orientation:
 ---------------------------------------------------------------------
 Center     Atomic      Atomic             Coordinates (Angstroms)
 Number     Number       Type             X           Y           Z
 ---------------------------------------------------------------------
      1          1           0        0.000000    0.000000    0.000000
      2          6           0        0.000000    0.000000    1.089575
      3          6           0        1.382402    0.000000    1.785406
      4          6           0       -0.347877    1.329419    1.808569
      5          1           0       -0.635941   -0.817644    1.435730
      6          1           0       -1.326434    1.346661    2.301377
      7          6           0        0.838384    1.015338    2.815078
      8          6           0       -0.194607    2.599261    1.031339
      9          1           0        2.145459    0.443666    1.147024
     10          1           0        1.759611   -0.946240    2.171557
     11          1           0        0.401078    0.471224    3.659871
     12          1           0       -0.191338    3.499992    1.640041
     13          6           0        1.689103    2.117582    3.353131
     14          6           0       -0.053704    2.735659   -0.282230
     15          1           0       -0.017910    1.888106   -0.955844
     16          1           0        0.067392    3.713384   -0.730878
     17          6           0        2.985566    2.287828    3.126150
     18          1           0        1.180983    2.817646    4.013484
     19          1           0        3.535740    3.101666    3.579553
     20          1           0        3.555318    1.618974    2.492789
 ---------------------------------------------------------------------

 SCF Done:  E(RB3LYP) =  -312.118661331     A.U. after    1 cycles

 Isotropic polarizability for W=    0.000000       92.45 Bohr**3.
 End of Minotr F.D. properties file   721 does not exist.

                      1                      2                      3
                      A                      A                      A
 Frequencies --     61.8529                95.1229               104.0041
 Red. masses --      2.8715                 2.1865                 2.3235
 Frc consts  --      0.0065                 0.0117                 0.0148
 IR Inten    --      0.1602                 0.0977                 0.0666

                      4                      5                      6
                      A                      A                      A
 Frequencies --    205.6777               251.9048               302.4415
 Red. masses --      2.1335                 2.4583                 2.4299
 Frc consts  --      0.0532                 0.0919                 0.1310
 IR Inten    --      0.0277                 0.2537                 0.4870

                      7                      8                      9
                      A                      A                      A
 Frequencies --    399.5080               493.9081               531.9825
 Red. masses --      2.0068                 2.1690                 2.1288
 Frc consts  --      0.1887                 0.3118                 0.3550
 IR Inten    --      3.9479                 2.0573                 0.7827

                     10                     11                     12
                      A                      A                      A
 Frequencies --    601.4058               641.9333               733.9297
 Red. masses --      1.9759                 2.0215                 1.5197
 Frc consts  --      0.4211                 0.4908                 0.4823
 IR Inten    --      3.5174                 5.6577                 2.4223

                     13                     14                     15
                      A                      A                      A
 Frequencies --    767.1622               812.7096               906.2818
 Red. masses --      1.8180                 2.1693                 2.1884
 Frc consts  --      0.6304                 0.8442                 1.0590
 IR Inten    --      5.3538                 2.4138                 3.6566

                     16                     17                     18
                      A                      A                      A
 Frequencies --    937.4565               939.5684               946.5930
 Red. masses --      2.6554                 1.4351                 2.2142
 Frc consts  --      1.3749                 0.7464                 1.1689
 IR Inten    --      1.8990                41.2154                 6.5183

                     19                     20                     21
                      A                      A                      A
 Frequencies --    978.7911               982.1413              1023.6702
 Red. masses --      1.6940                 1.3188                 1.2841
 Frc consts  --      0.9562                 0.7495                 0.7928
 IR Inten    --      0.2176                41.7248                 3.1309

                     22                     23                     24
                      A                      A                      A
 Frequencies --   1028.6139              1034.8855              1061.5953
 Red. masses --      1.1061                 1.1375                 1.8463
 Frc consts  --      0.6895                 0.7178                 1.2259
 IR Inten    --      8.8423                 7.7736                 0.8550

                     25                     26                     27
                      A                      A                      A
 Frequencies --   1080.8006              1121.3435              1158.3987
 Red. masses --      1.7500                 1.5174                 1.8242
 Frc consts  --      1.2044                 1.1242                 1.4423
 IR Inten    --     12.2946                 5.1340                 0.5257

                     28                     29                     30
                      A                      A                      A
 Frequencies --   1201.1113              1228.0989              1255.5211
 Red. masses --      1.3567                 1.3143                 1.3190
 Frc consts  --      1.1532                 1.1679                 1.2250
 IR Inten    --      1.7299                 0.7970                 0.2286

                     31                     32                     33
                      A                      A                      A
 Frequencies --   1264.0890              1276.9640              1332.7408
 Red. masses --      1.3811                 1.3959                 1.3016
 Frc consts  --      1.3002                 1.3411                 1.3622
 IR Inten    --      2.1318                 0.8081                 1.8886

                     34                     35                     36
                      A                      A                      A
 Frequencies --   1340.2478              1356.1850              1377.1957
 Red. masses --      1.2977                 1.4292                 1.6788
 Frc consts  --      1.3734                 1.5487                 1.8760
 IR Inten    --      0.0564                 1.6474                 5.7142

                     37                     38                     39
                      A                      A                      A
 Frequencies --   1453.3159              1462.4107              1486.8200
 Red. masses --      1.1986                 1.2067                 1.0921
 Frc consts  --      1.4916                 1.5205                 1.4224
 IR Inten    --      2.3392                 8.2303                 2.1523

                     40                     41                     42
                      A                      A                      A
 Frequencies --   1504.1293              1700.6704              1705.5692
 Red. masses --      1.1256                 4.5009                 4.4971
 Frc consts  --      1.5004                 7.6700                 7.7076
 IR Inten    --      4.5360                21.4610                 6.3912

                     43                     44                     45
                      A                      A                      A
 Frequencies --   2990.5370              3007.2242              3043.0782
 Red. masses --      1.0832                 1.0831                 1.0637
 Frc consts  --      5.7079                 5.7708                 5.8033
 IR Inten    --     21.7569                57.9141                74.6960

                     46                     47                     48
                      A                      A                      A
 Frequencies --   3069.2306              3090.5876              3112.4879
 Red. masses --      1.0591                 1.1014                 1.0860
 Frc consts  --      5.8782                 6.1984                 6.1987
 IR Inten    --     24.1120                24.9690                15.0548

                     49                     50                     51
                      A                      A                      A
 Frequencies --   3118.5195              3128.0612              3142.0790
 Red. masses --      1.1078                 1.0818                 1.0652
 Frc consts  --      6.3478                 6.2364                 6.1962
 IR Inten    --     32.6263                15.9802                 7.5147

                     52                     53                     54
                      A                      A                      A
 Frequencies --   3150.0366              3216.9469              3230.1121
 Red. masses --      1.0624                 1.1149                 1.1158
 Frc consts  --      6.2112                 6.7979                 6.8591
 IR Inten    --      1.3732                13.5555                 4.4577

 - Thermochemistry -
 -------------------
 Temperature   298.150 Kelvin.  Pressure   1.00000 Atm.
 Atom     1 has atomic number  1 and mass   1.00783

 Molecular mass:   108.09390 amu.
 Principal axes and moments of inertia in atomic units:
                           1         2         3
     Eigenvalues --   646.118881065.366501374.73463
           X            0.67987   0.12159   0.72318
           Y           -0.00047   0.98623  -0.16538
           Z            0.73333  -0.11210  -0.67057
 This molecule is an asymmetric top.
 Rotational symmetry number  1.
 Warning -- assumption of classical behavior for rotation
           may cause significant error
 Rotational temperatures (Kelvin)      0.13405     0.08130     0.06300
 Rotational constants (GHZ):           2.79320     1.69401     1.31279
 Zero-point vibrational energy     463239.8 (Joules/Mol)
                                  110.71698 (Kcal/Mol)
 Warning -- explicit consideration of  10 degrees of freedom as
           vibrations may cause significant error
 Vibrational temperatures:     88.99   136.86   149.64   295.92   362.43
          (Kelvin)            435.15   574.80   710.62   765.40   865.29
                              923.60  1055.96  1103.78  1169.31  1303.94
                             1348.79  1351.83  1361.94  1408.26  1413.08
                             1472.83  1479.95  1488.97  1527.40  1555.03
                             1613.36  1666.68  1728.13  1766.96  1806.41
                             1818.74  1837.27  1917.52  1928.32  1951.25
                             1981.48  2091.00  2104.08  2139.20  2164.11
                             2446.89  2453.93  4302.72  4326.72  4378.31
                             4415.94  4446.67  4478.18  4486.85  4500.58
                             4520.75  4532.20  4628.47  4647.41

 Zero-point correction=                           0.176439 (Hartree/Particle)
 Thermal correction to Energy=                    0.184906
 Thermal correction to Enthalpy=                  0.185851
 Thermal correction to Gibbs Free Energy=         0.143049
 Sum of electronic and zero-point Energies=           -311.942223
 Sum of electronic and thermal Energies=              -311.933755
 Sum of electronic and thermal Enthalpies=            -311.932811
 Sum of electronic and thermal Free Energies=         -311.975612

                     E (Thermal)             CV                S
                      KCal/Mol        Cal/Mol-Kelvin    Cal/Mol-Kelvin
 Total                  116.031             31.646             90.083
 Electronic               0.000              0.000              0.000
 Translational            0.889              2.981             39.950
 Rotational               0.889              2.981             28.339
 Vibrational            114.253             25.684             21.795
 Vibration     1          0.597              1.973              4.397
 Vibration     2          0.603              1.953              3.552
 Vibration     3          0.605              1.946              3.378
 Vibration     4          0.640              1.832              2.082
 Vibration     5          0.664              1.760              1.717
 Vibration     6          0.694              1.669              1.403
 Vibration     7          0.766              1.471              0.964
 Vibration     8          0.850              1.264              0.674
 Vibration     9          0.887              1.179              0.583
 Vibration    10          0.960              1.029              0.447

                       ! Non-Optimized Parameters !
 Normal termination of Gaussian 16 at Fri Jun 10 23:58:38 2022.
