 Gaussian 16, Revision A.03,
 Gaussian 16:  ES64L-G16RevA.03 25-Dec-2016

 ----------------------------------------------------------------------
 # Opt=(TS, CalcFC, noeigentest, Z-matrix, MaxStep=10) Field=read NoSym
 m B3LYP/Def2TZVP freq=noraman pop=none
 ----------------------------------------------------------------------

 -----------------
 ts_zmat_initalOpt
 -----------------
 Symbolic Z-matrix:
 Charge =  0 Multiplicity = 1

 SCF Done:  E(RB3LYP) =  -312.080202461     A.U. after   14 cycles
 SCF Done:  E(RB3LYP) =  -312.080208433     A.U. after    9 cycles
 SCF Done:  E(RB3LYP) =  -312.080208493     A.U. after    7 cycles
 Optimization completed.
    -- Stationary point found.
 Normal termination of Gaussian 16 at Fri Jun 10 22:36:18 2022.

 --------------------------------------------------------------------
 #N Geom=AllCheck Guess=TCheck SCRF=Check GenChk RB3LYP/def2TZVP Freq
 --------------------------------------------------------------------

 Structure from the checkpoint file:  "checkpoint.chk"
 -----------------
 ts_zmat_initalOpt
 -----------------
 Charge =  0 Multiplicity = 1

                          Input orientation:
 ---------------------------------------------------------------------
 Center     Atomic      Atomic             Coordinates (Angstroms)
 Number     Number       Type             X           Y           Z
 ---------------------------------------------------------------------
      1          1           0        0.000000    0.000000    0.000000
      2          6           0        0.000000    0.000000    1.091101
      3          1           0        1.044827    0.000000    1.405914
      4          6           0       -0.802579    1.173851    1.680198
      5          6           0       -0.755504   -1.210294    1.627339
      6          1           0       -1.450986   -1.685147    0.944680
      7          6           0       -1.910323    0.456385    2.441848
      8          6           0       -0.355915   -1.949793    2.736678
      9          1           0       -1.218885    1.827078    0.911620
     10          1           0       -0.204495    1.805864    2.338386
     11          1           0       -0.949366   -2.830632    2.968034
     12          6           0        0.517275   -1.505663    3.703676
     13          6           0       -1.906037    0.262339    3.820089
     14          1           0       -2.863314    0.363617    1.933510
     15          1           0        1.254569   -0.746888    3.487343
     16          1           0        0.714834   -2.111403    4.577833
     17          6           0       -0.788839    0.344434    4.620557
     18          1           0       -2.789099   -0.209365    4.243497
     19          1           0        0.061585    0.946011    4.336749
     20          1           0       -0.853916    0.096393    5.671478
 ---------------------------------------------------------------------

 SCF Done:  E(RB3LYP) =  -312.080208493     A.U. after    1 cycles

 Isotropic polarizability for W=    0.000000      102.30 Bohr**3.
 End of Minotr F.D. properties file   721 does not exist.

 ******    1 imaginary frequencies (negative Signs) ******

                      1                      2                      3
                      A                      A                      A
 Frequencies --   -427.7156                60.0540               260.3833
 Red. masses --      8.2009                 2.0956                 2.6564
 Frc consts  --      0.8839                 0.0045                 0.1061
 IR Inten    --      2.0171                 0.0015                 0.6948

                      4                      5                      6
                      A                      A                      A
 Frequencies --    260.9633               284.4061               302.8238
 Red. masses --      4.1382                 2.9762                 3.3450
 Frc consts  --      0.1660                 0.1418                 0.1807
 IR Inten    --      0.1644                 0.3025                 0.1029

                      7                      8                      9
                      A                      A                      A
 Frequencies --    370.0991               423.1692               531.1913
 Red. masses --      2.3161                 2.2729                 2.2844
 Frc consts  --      0.1869                 0.2398                 0.3798
 IR Inten    --      1.5919                 1.6272                 2.4975

                     10                     11                     12
                      A                      A                      A
 Frequencies --    573.9544               659.4310               686.1759
 Red. masses --      2.0396                 2.6330                 1.3369
 Frc consts  --      0.3959                 0.6746                 0.3709
 IR Inten    --      0.4858                 3.9471                 0.1271

                     13                     14                     15
                      A                      A                      A
 Frequencies --    718.4235               763.0877               786.6118
 Red. masses --      1.3248                 1.0987                 1.3279
 Frc consts  --      0.4029                 0.3769                 0.4841
 IR Inten    --     23.4795                 5.8805                 7.0879

                     16                     17                     18
                      A                      A                      A
 Frequencies --    862.4161               900.1291               914.5635
 Red. masses --      1.4950                 1.1948                 2.2872
 Frc consts  --      0.6551                 0.5704                 1.1271
 IR Inten    --     11.8389                 2.3003                 1.5590

                     19                     20                     21
                      A                      A                      A
 Frequencies --    942.4899               952.6165               992.9913
 Red. masses --      1.4968                 1.5075                 1.5087
 Frc consts  --      0.7834                 0.8060                 0.8765
 IR Inten    --      0.0097                10.1486                 5.4444

                     22                     23                     24
                      A                      A                      A
 Frequencies --    994.9490              1011.6082              1021.2731
 Red. masses --      1.6613                 1.5821                 1.2633
 Frc consts  --      0.9690                 0.9539                 0.7763
 IR Inten    --      0.7894                 0.4082                21.8561

                     25                     26                     27
                      A                      A                      A
 Frequencies --   1041.1672              1088.7173              1147.8278
 Red. masses --      1.4261                 1.9420                 1.2891
 Frc consts  --      0.9108                 1.3562                 1.0007
 IR Inten    --      0.1877                 5.4887                 0.2686

                     28                     29                     30
                      A                      A                      A
 Frequencies --   1181.4970              1220.7189              1264.3815
 Red. masses --      1.6002                 1.5179                 1.1344
 Frc consts  --      1.3161                 1.3326                 1.0685
 IR Inten    --      0.5130                 0.2835                 0.0685

                     31                     32                     33
                      A                      A                      A
 Frequencies --   1289.6218              1297.2944              1300.7835
 Red. masses --      1.4784                 1.4323                 1.3332
 Frc consts  --      1.4486                 1.4202                 1.3291
 IR Inten    --      0.0797                 0.8934                 1.1761

                     34                     35                     36
                      A                      A                      A
 Frequencies --   1325.3519              1429.9831              1430.4009
 Red. masses --      1.4065                 1.3520                 1.3190
 Frc consts  --      1.4557                 1.6289                 1.5901
 IR Inten    --      2.9793                 0.6220                 3.1927

                     37                     38                     39
                      A                      A                      A
 Frequencies --   1487.9369              1495.8263              1506.2315
 Red. masses --      1.1692                 2.2960                 1.5367
 Frc consts  --      1.5252                 3.0268                 2.0541
 IR Inten    --      2.5879                 3.9582                 0.2882

                     40                     41                     42
                      A                      A                      A
 Frequencies --   1510.3956              1560.2163              1611.8403
 Red. masses --      1.1263                 1.9002                 3.7612
 Frc consts  --      1.5138                 2.7254                 5.7573
 IR Inten    --     15.5006                 2.2169                 4.9493

                     43                     44                     45
                      A                      A                      A
 Frequencies --   3044.4993              3052.0545              3072.6868
 Red. masses --      1.0583                 1.0600                 1.1054
 Frc consts  --      5.7797                 5.8178                 6.1490
 IR Inten    --     29.5878                55.1244                 0.0254

                     46                     47                     48
                      A                      A                      A
 Frequencies --   3093.5004              3117.5044              3120.3507
 Red. masses --      1.1059                 1.0847                 1.0854
 Frc consts  --      6.2352                 6.2113                 6.2267
 IR Inten    --     23.0594                 8.2233                26.1199

                     49                     50                     51
                      A                      A                      A
 Frequencies --   3153.4713              3158.0435              3159.1893
 Red. masses --      1.0749                 1.0746                 1.0755
 Frc consts  --      6.2977                 6.3144                 6.3240
 IR Inten    --      1.0042                 8.8658                45.1083

                     52                     53                     54
                      A                      A                      A
 Frequencies --   3164.3206              3233.9094              3245.2379
 Red. masses --      1.0717                 1.1164                 1.1138
 Frc consts  --      6.3226                 6.8792                 6.9110
 IR Inten    --      5.3742                 0.9569                17.9836

 - Thermochemistry -
 -------------------
 Temperature   298.150 Kelvin.  Pressure   1.00000 Atm.
 Atom     1 has atomic number  1 and mass   1.00783

 Molecular mass:   108.09390 amu.
 Principal axes and moments of inertia in atomic units:
                           1         2         3
     Eigenvalues --   724.16107 781.796491140.52033
           X            0.07783  -0.53431   0.84169
           Y           -0.35756   0.77313   0.52385
           Z            0.93064   0.34173   0.13088
 This molecule is an asymmetric top.
 Rotational symmetry number  1.
 Warning -- assumption of classical behavior for rotation
           may cause significant error
 Rotational temperatures (Kelvin)      0.11961     0.11079     0.07594
 Rotational constants (GHZ):           2.49218     2.30845     1.58238
    1 imaginary frequencies ignored.
 Zero-point vibrational energy     461033.4 (Joules/Mol)
                                  110.18964 (Kcal/Mol)
 Warning -- explicit consideration of   9 degrees of freedom as
           vibrations may cause significant error
 Vibrational temperatures:     86.40   374.63   375.47   409.20   435.70
          (Kelvin)            532.49   608.85   764.27   825.79   948.77
                              987.25  1033.65  1097.91  1131.76  1240.82
                             1295.08  1315.85  1356.03  1370.60  1428.69
                             1431.51  1455.48  1469.38  1498.01  1566.42
                             1651.47  1699.91  1756.34  1819.16  1855.48
                             1866.52  1871.54  1906.89  2057.43  2058.03
                             2140.81  2152.16  2167.13  2173.12  2244.80
                             2319.08  4380.36  4391.23  4420.91  4450.86
                             4485.39  4489.49  4537.14  4543.72  4545.37
                             4552.75  4652.87  4669.17

 Zero-point correction=                           0.175598 (Hartree/Particle)
 Thermal correction to Energy=                    0.183185
 Thermal correction to Enthalpy=                  0.184129
 Thermal correction to Gibbs Free Energy=         0.143935
 Sum of electronic and zero-point Energies=           -311.904610
 Sum of electronic and thermal Energies=              -311.897023
 Sum of electronic and thermal Enthalpies=            -311.896079
 Sum of electronic and thermal Free Energies=         -311.936274

                     E (Thermal)             CV                S
                      KCal/Mol        Cal/Mol-Kelvin    Cal/Mol-Kelvin
 Total                  114.951             30.490             84.597
 Electronic               0.000              0.000              0.000
 Translational            0.889              2.981             39.950
 Rotational               0.889              2.981             27.959
 Vibrational            113.173             24.529             16.688
 Vibration     1          0.597              1.973              4.455
 Vibration     2          0.668              1.745              1.659
 Vibration     3          0.669              1.744              1.655
 Vibration     4          0.683              1.703              1.507
 Vibration     5          0.694              1.668              1.401
 Vibration     6          0.742              1.534              1.079
 Vibration     7          0.785              1.420              0.881
 Vibration     8          0.886              1.181              0.585
 Vibration     9          0.930              1.088              0.497

 Optimization completed.
    -- Stationary point found.
 Normal termination of Gaussian 16 at Fri Jun 10 22:45:46 2022.
