 Gaussian 16, Revision A.03,
 Gaussian 16:  ES64L-G16RevA.03 25-Dec-2016

 ----------------------------------------------------------------------
 # Opt=(TS, CalcFC, noeigentest, Z-matrix, MaxStep=10) geom=allcheckpoi
 nt guess=read Field=read NoSymm B3LYP/Def2TZVP freq=noraman pop=none
 ----------------------------------------------------------------------

 Structure from the checkpoint file:  "checkpoint.chk"
 -----------------
 ts_zmat_initalOpt
 -----------------
 Charge =  0 Multiplicity = 1

 SCF Done:  E(RB3LYP) =  -312.082681368     A.U. after   10 cycles
 SCF Done:  E(RB3LYP) =  -312.082689814     A.U. after   11 cycles
 SCF Done:  E(RB3LYP) =  -312.082692968     A.U. after    9 cycles
 SCF Done:  E(RB3LYP) =  -312.082693126     A.U. after    7 cycles
 Optimization completed.
    -- Stationary point found.
 Normal termination of Gaussian 16 at Fri Jun 10 23:47:54 2022.

 --------------------------------------------------------------------
 #N Geom=AllCheck Guess=TCheck SCRF=Check GenChk RB3LYP/def2TZVP Freq
 --------------------------------------------------------------------

 Structure from the checkpoint file:  "checkpoint.chk"
 -----------------
 ts_zmat_initalOpt
 -----------------
 Charge =  0 Multiplicity = 1

                          Input orientation:
 ---------------------------------------------------------------------
 Center     Atomic      Atomic             Coordinates (Angstroms)
 Number     Number       Type             X           Y           Z
 ---------------------------------------------------------------------
      1          1           0        0.000000    0.000000    0.000000
      2          6           0        0.000000    0.000000    1.090230
      3          1           0        1.043729    0.000000    1.407138
      4          6           0       -0.807752    1.174294    1.670686
      5          6           0       -0.766511   -1.211885    1.610454
      6          1           0       -1.413313   -1.711348    0.897323
      7          6           0       -1.975598    0.457194    2.335460
      8          6           0       -0.424109   -1.930276    2.752859
      9          1           0       -1.154263    1.870976    0.906587
     10          1           0       -0.235069    1.760681    2.389172
     11          1           0       -1.015417   -2.820749    2.957080
     12          6           0        0.377908   -1.460419    3.767581
     13          6           0       -2.087871    0.258115    3.708588
     14          1           0       -2.881316    0.363286    1.746294
     15          1           0        1.108376   -0.685300    3.589264
     16          1           0        0.540103   -2.056526    4.655872
     17          6           0       -1.044299    0.347200    4.603025
     18          1           0       -3.000299   -0.224899    4.052818
     19          1           0       -0.182323    0.964586    4.402071
     20          1           0       -1.197602    0.089896    5.643043
 ---------------------------------------------------------------------

 SCF Done:  E(RB3LYP) =  -312.082693126     A.U. after    1 cycles

 Isotropic polarizability for W=    0.000000      102.45 Bohr**3.
 End of Minotr F.D. properties file   721 does not exist.

 ******    1 imaginary frequencies (negative Signs) ******

                      1                      2                      3
                      A                      A                      A
 Frequencies --   -425.2417                65.7999               253.7118
 Red. masses --      8.1869                 2.0999                 2.4409
 Frc consts  --      0.8723                 0.0054                 0.0926
 IR Inten    --      1.5409                 0.0081                 0.8749

                      4                      5                      6
                      A                      A                      A
 Frequencies --    258.9623               281.5526               304.8524
 Red. masses --      4.5815                 3.1863                 3.2043
 Frc consts  --      0.1810                 0.1488                 0.1755
 IR Inten    --      0.0337                 0.5084                 0.4003

                      7                      8                      9
                      A                      A                      A
 Frequencies --    367.5603               421.4330               531.3959
 Red. masses --      2.2926                 2.2422                 2.2817
 Frc consts  --      0.1825                 0.2346                 0.3796
 IR Inten    --      2.3278                 2.0547                 2.2562

                     10                     11                     12
                      A                      A                      A
 Frequencies --    573.7731               657.2619               681.9798
 Red. masses --      2.0355                 2.5755                 1.3526
 Frc consts  --      0.3948                 0.6555                 0.3706
 IR Inten    --      0.7345                 4.2380                 0.1293

                     13                     14                     15
                      A                      A                      A
 Frequencies --    713.0852               760.7603               786.4182
 Red. masses --      1.3334                 1.0966                 1.3458
 Frc consts  --      0.3995                 0.3739                 0.4904
 IR Inten    --     23.5913                 8.4705                 5.8192

                     16                     17                     18
                      A                      A                      A
 Frequencies --    861.5627               901.5223               914.1814
 Red. masses --      1.4923                 1.2491                 2.1267
 Frc consts  --      0.6527                 0.5981                 1.0472
 IR Inten    --     12.2860                 1.6087                 3.3715

                     19                     20                     21
                      A                      A                      A
 Frequencies --    939.4973               954.7525               989.7297
 Red. masses --      1.5076                 1.5001                 1.4895
 Frc consts  --      0.7840                 0.8057                 0.8597
 IR Inten    --      0.1310                 9.1559                 6.1678

                     22                     23                     24
                      A                      A                      A
 Frequencies --    991.5566              1009.6566              1017.6891
 Red. masses --      1.4726                 1.7637                 1.2891
 Frc consts  --      0.8531                 1.0593                 0.7866
 IR Inten    --      0.8225                 1.4109                20.2341

                     25                     26                     27
                      A                      A                      A
 Frequencies --   1039.2226              1087.0097              1147.6526
 Red. masses --      1.4456                 1.9324                 1.2914
 Frc consts  --      0.9199                 1.3453                 1.0022
 IR Inten    --      0.3563                 5.3434                 0.3990

                     28                     29                     30
                      A                      A                      A
 Frequencies --   1181.1239              1222.2953              1263.7322
 Red. masses --      1.5903                 1.5114                 1.1502
 Frc consts  --      1.3072                 1.3304                 1.0823
 IR Inten    --      0.6096                 0.6059                 0.2003

                     31                     32                     33
                      A                      A                      A
 Frequencies --   1287.9468              1298.6927              1302.2761
 Red. masses --      1.4727                 1.3440                 1.3929
 Frc consts  --      1.4394                 1.3355                 1.3918
 IR Inten    --      0.2832                 1.2637                 1.3136

                     34                     35                     36
                      A                      A                      A
 Frequencies --   1328.7807              1429.4173              1430.1034
 Red. masses --      1.3975                 1.3423                 1.3364
 Frc consts  --      1.4538                 1.6159                 1.6103
 IR Inten    --      3.1236                 1.6606                 2.3690

                     37                     38                     39
                      A                      A                      A
 Frequencies --   1488.3669              1494.4614              1505.5782
 Red. masses --      1.2083                 2.2659                 1.4938
 Frc consts  --      1.5770                 2.9816                 1.9951
 IR Inten    --      3.4123                 3.5144                 0.5790

                     40                     41                     42
                      A                      A                      A
 Frequencies --   1511.4288              1559.8916              1610.9502
 Red. masses --      1.1250                 1.9027                 3.7585
 Frc consts  --      1.5142                 2.7278                 5.7468
 IR Inten    --     16.2304                 2.5045                 6.3525

                     43                     44                     45
                      A                      A                      A
 Frequencies --   3054.9387              3062.5010              3085.0339
 Red. masses --      1.0590                 1.0606                 1.1048
 Frc consts  --      5.8229                 5.8609                 6.1950
 IR Inten    --     21.9709                34.4240                 0.1171

                     46                     47                     48
                      A                      A                      A
 Frequencies --   3098.3875              3100.1496              3106.1431
 Red. masses --      1.0849                 1.0879                 1.1023
 Frc consts  --      6.1365                 6.1603                 6.2661
 IR Inten    --     15.0734                39.4386                22.0416

                     49                     50                     51
                      A                      A                      A
 Frequencies --   3147.1421              3153.2242              3155.3751
 Red. masses --      1.0873                 1.0840                 1.0632
 Frc consts  --      6.3450                 6.3500                 6.2367
 IR Inten    --      6.3212                56.0132                 7.5327

                     52                     53                     54
                      A                      A                      A
 Frequencies --   3161.0106              3234.4420              3246.3673
 Red. masses --      1.0646                 1.1157                 1.1123
 Frc consts  --      6.2672                 6.8768                 6.9067
 IR Inten    --     11.8073                 1.9537                17.5608

 - Thermochemistry -
 -------------------
 Temperature   298.150 Kelvin.  Pressure   1.00000 Atm.
 Atom     1 has atomic number  1 and mass   1.00783

 Molecular mass:   108.09390 amu.
 Principal axes and moments of inertia in atomic units:
                           1         2         3
     Eigenvalues --   722.86690 784.749621142.80976
           X           -0.04457  -0.56561   0.82347
           Y           -0.27065   0.80029   0.53505
           Z            0.96164   0.19903   0.18876
 This molecule is an asymmetric top.
 Rotational symmetry number  1.
 Warning -- assumption of classical behavior for rotation
           may cause significant error
 Rotational temperatures (Kelvin)      0.11982     0.11037     0.07579
 Rotational constants (GHZ):           2.49664     2.29977     1.57921
    1 imaginary frequencies ignored.
 Zero-point vibrational energy     460755.7 (Joules/Mol)
                                  110.12326 (Kcal/Mol)
 Warning -- explicit consideration of   9 degrees of freedom as
           vibrations may cause significant error
 Vibrational temperatures:     94.67   365.03   372.59   405.09   438.61
          (Kelvin)            528.84   606.35   764.56   825.53   945.65
                              981.22  1025.97  1094.56  1131.48  1239.60
                             1297.09  1315.30  1351.73  1373.68  1424.00
                             1426.63  1452.67  1464.23  1495.21  1563.96
                             1651.22  1699.37  1758.61  1818.23  1853.07
                             1868.53  1873.68  1911.82  2056.61  2057.60
                             2141.43  2150.20  2166.19  2174.61  2244.34
                             2317.80  4395.38  4406.26  4438.68  4457.89
                             4460.42  4469.05  4528.04  4536.79  4539.88
                             4547.99  4653.64  4670.80

 Zero-point correction=                           0.175493 (Hartree/Particle)
 Thermal correction to Energy=                    0.183093
 Thermal correction to Enthalpy=                  0.184037
 Thermal correction to Gibbs Free Energy=         0.143877
 Sum of electronic and zero-point Energies=           -311.907201
 Sum of electronic and thermal Energies=              -311.899600
 Sum of electronic and thermal Enthalpies=            -311.898656
 Sum of electronic and thermal Free Energies=         -311.938816

                     E (Thermal)             CV                S
                      KCal/Mol        Cal/Mol-Kelvin    Cal/Mol-Kelvin
 Total                  114.893             30.556             84.525
 Electronic               0.000              0.000              0.000
 Translational            0.889              2.981             39.950
 Rotational               0.889              2.981             27.963
 Vibrational            113.115             24.594             16.612
 Vibration     1          0.597              1.971              4.275
 Vibration     2          0.665              1.757              1.705
 Vibration     3          0.668              1.748              1.669
 Vibration     4          0.681              1.708              1.524
 Vibration     5          0.696              1.664              1.390
 Vibration     6          0.740              1.539              1.090
 Vibration     7          0.784              1.424              0.887
 Vibration     8          0.886              1.181              0.584
 Vibration     9          0.930              1.088              0.497

 Optimization completed.
    -- Stationary point found.
 Normal termination of Gaussian 16 at Fri Jun 10 23:58:30 2022.
