 Gaussian 16, Revision A.03,
 Gaussian 16:  ES64L-G16RevA.03 25-Dec-2016

 ----------------------------------------------------------------------
 # Opt=(TS, CalcFC, noeigentest, Z-matrix, MaxStep=10) geom=allcheckpoi
 nt guess=read Field=read NoSymm B3LYP/Def2TZVP freq=noraman pop=none
 ----------------------------------------------------------------------

 Structure from the checkpoint file:  "checkpoint.chk"
 -----------------
 ts_zmat_initalOpt
 -----------------
 Charge =  0 Multiplicity = 1

 SCF Done:  E(RB3LYP) =  -312.084765040     A.U. after   10 cycles
 SCF Done:  E(RB3LYP) =  -312.084777302     A.U. after   10 cycles
 SCF Done:  E(RB3LYP) =  -312.084777419     A.U. after    7 cycles
 Optimization completed.
    -- Stationary point found.
 Normal termination of Gaussian 16 at Sat Jun 11 00:25:39 2022.

 --------------------------------------------------------------------
 #N Geom=AllCheck Guess=TCheck SCRF=Check GenChk RB3LYP/def2TZVP Freq
 --------------------------------------------------------------------

 Structure from the checkpoint file:  "checkpoint.chk"
 -----------------
 ts_zmat_initalOpt
 -----------------
 Charge =  0 Multiplicity = 1

                          Input orientation:
 ---------------------------------------------------------------------
 Center     Atomic      Atomic             Coordinates (Angstroms)
 Number     Number       Type             X           Y           Z
 ---------------------------------------------------------------------
      1          1           0        0.000000    0.000000    0.000000
      2          6           0        0.000000    0.000000    1.089886
      3          1           0        1.043158    0.000000    1.407948
      4          6           0       -0.810575    1.173794    1.666872
      5          6           0       -0.771559   -1.212941    1.602125
      6          1           0       -1.396286   -1.722358    0.876030
      7          6           0       -2.002351    0.456951    2.287533
      8          6           0       -0.456330   -1.923417    2.757593
      9          1           0       -1.126912    1.888410    0.906666
     10          1           0       -0.250938    1.740400    2.410535
     11          1           0       -1.047224   -2.817948    2.948863
     12          6           0        0.313129   -1.444357    3.792745
     13          6           0       -2.166105    0.254531    3.655218
     14          1           0       -2.885027    0.363071    1.663969
     15          1           0        1.040940   -0.662802    3.632293
     16          1           0        0.458187   -2.037567    4.686177
     17          6           0       -1.157793    0.345540    4.589304
     18          1           0       -3.089607   -0.233607    3.963203
     19          1           0       -0.293043    0.969624    4.425267
     20          1           0       -1.350059    0.083797    5.622084
 ---------------------------------------------------------------------

 SCF Done:  E(RB3LYP) =  -312.084777419     A.U. after    1 cycles

 Isotropic polarizability for W=    0.000000      102.61 Bohr**3.
 End of Minotr F.D. properties file   721 does not exist.

 ******    1 imaginary frequencies (negative Signs) ******

                      1                      2                      3
                      A                      A                      A
 Frequencies --   -423.4170                66.8594               249.0862
 Red. masses --      8.1710                 2.1029                 2.4289
 Frc consts  --      0.8631                 0.0055                 0.0888
 IR Inten    --      1.4097                 0.0230                 0.9267

                      4                      5                      6
                      A                      A                      A
 Frequencies --    257.6569               280.0074               305.2765
 Red. masses --      4.5122                 3.2903                 3.1406
 Frc consts  --      0.1765                 0.1520                 0.1724
 IR Inten    --      0.0348                 0.6094                 0.6396

                      7                      8                      9
                      A                      A                      A
 Frequencies --    366.3468               420.1205               530.8370
 Red. masses --      2.2771                 2.2234                 2.2787
 Frc consts  --      0.1801                 0.2312                 0.3783
 IR Inten    --      2.7284                 2.3498                 2.1235

                     10                     11                     12
                      A                      A                      A
 Frequencies --    573.2024               655.6956               679.2258
 Red. masses --      2.0330                 2.5372                 1.3625
 Frc consts  --      0.3935                 0.6427                 0.3703
 IR Inten    --      0.8956                 4.3870                 0.1560

                     13                     14                     15
                      A                      A                      A
 Frequencies --    710.0309               759.4615               786.3608
 Red. masses --      1.3396                 1.0980                 1.3556
 Frc consts  --      0.3979                 0.3731                 0.4939
 IR Inten    --     23.4018                 9.8240                 5.1521

                     16                     17                     18
                      A                      A                      A
 Frequencies --    860.8441               901.0340               913.4209
 Red. masses --      1.4900                 1.2667                 2.0854
 Frc consts  --      0.6506                 0.6059                 1.0251
 IR Inten    --     12.7615                 1.3348                 4.3795

                     19                     20                     21
                      A                      A                      A
 Frequencies --    937.3039               955.0755               987.7412
 Red. masses --      1.5007                 1.5061                 1.4768
 Frc consts  --      0.7768                 0.8094                 0.8489
 IR Inten    --      0.1745                 8.9608                 6.4238

                     22                     23                     24
                      A                      A                      A
 Frequencies --    989.1110              1008.8328              1016.0738
 Red. masses --      1.4181                 1.8146                 1.3140
 Frc consts  --      0.8174                 1.0881                 0.7993
 IR Inten    --      0.7798                 2.2898                18.8134

                     25                     26                     27
                      A                      A                      A
 Frequencies --   1037.8801              1086.0257              1147.4202
 Red. masses --      1.4573                 1.9252                 1.2955
 Frc consts  --      0.9249                 1.3378                 1.0049
 IR Inten    --      0.4820                 5.3338                 0.5133

                     28                     29                     30
                      A                      A                      A
 Frequencies --   1180.9019              1222.7171              1262.8157
 Red. masses --      1.5849                 1.5092                 1.1595
 Frc consts  --      1.3022                 1.3294                 1.0894
 IR Inten    --      0.6621                 0.8450                 0.3238

                     31                     32                     33
                      A                      A                      A
 Frequencies --   1286.7080              1297.7273              1304.5153
 Red. masses --      1.4697                 1.3431                 1.3797
 Frc consts  --      1.4337                 1.3327                 1.3834
 IR Inten    --      0.4510                 1.4068                 1.4864

                     34                     35                     36
                      A                      A                      A
 Frequencies --   1330.2860              1428.6515              1429.7526
 Red. masses --      1.3923                 1.3406                 1.3391
 Frc consts  --      1.4517                 1.6121                 1.6129
 IR Inten    --      3.2039                 1.7609                 2.3709

                     37                     38                     39
                      A                      A                      A
 Frequencies --   1488.0955              1493.4773              1504.8265
 Red. masses --      1.2515                 2.2041                 1.4639
 Frc consts  --      1.6329                 2.8965                 1.9531
 IR Inten    --      3.7284                 3.4733                 0.8237

                     40                     41                     42
                      A                      A                      A
 Frequencies --   1511.8266              1559.4793              1610.0868
 Red. masses --      1.1238                 1.9064                 3.7499
 Frc consts  --      1.5134                 2.7316                 5.7276
 IR Inten    --     16.4759                 2.7152                 7.3529

                     43                     44                     45
                      A                      A                      A
 Frequencies --   3059.2308              3066.9500              3085.7101
 Red. masses --      1.0593                 1.0607                 1.0870
 Frc consts  --      5.8408                 5.8784                 6.0981
 IR Inten    --     18.1383                26.6315                14.5857

                     46                     47                     48
                      A                      A                      A
 Frequencies --   3089.8420              3091.6151              3109.9028
 Red. masses --      1.0848                 1.1022                 1.1053
 Frc consts  --      6.1019                 6.2070                 6.2982
 IR Inten    --     60.4964                 6.2894                10.3480

                     49                     50                     51
                      A                      A                      A
 Frequencies --   3143.5346              3150.1412              3153.2757
 Red. masses --      1.0883                 1.0841                 1.0634
 Frc consts  --      6.3364                 6.3383                 6.2299
 IR Inten    --      8.9483                58.0091                 9.2755

                     52                     53                     54
                      A                      A                      A
 Frequencies --   3158.4615              3234.1692              3246.4635
 Red. masses --      1.0646                 1.1151                 1.1113
 Frc consts  --      6.2574                 6.8722                 6.9011
 IR Inten    --     17.9555                 2.6315                17.4504

 - Thermochemistry -
 -------------------
 Temperature   298.150 Kelvin.  Pressure   1.00000 Atm.
 Atom     1 has atomic number  1 and mass   1.00783

 Molecular mass:   108.09390 amu.
 Principal axes and moments of inertia in atomic units:
                           1         2         3
     Eigenvalues --   722.00630 786.687011144.20994
           X           -0.09575  -0.57248   0.81431
           Y           -0.23921   0.80733   0.53944
           Z            0.96623   0.14314   0.21425
 This molecule is an asymmetric top.
 Rotational symmetry number  1.
 Warning -- assumption of classical behavior for rotation
           may cause significant error
 Rotational temperatures (Kelvin)      0.11996     0.11010     0.07570
 Rotational constants (GHZ):           2.49962     2.29410     1.57728
    1 imaginary frequencies ignored.
 Zero-point vibrational energy     460455.2 (Joules/Mol)
                                  110.05143 (Kcal/Mol)
 Warning -- explicit consideration of   9 degrees of freedom as
           vibrations may cause significant error
 Vibrational temperatures:     96.20   358.38   370.71   402.87   439.22
          (Kelvin)            527.09   604.46   763.76   824.71   943.40
                              977.25  1021.58  1092.70  1131.40  1238.56
                             1296.39  1314.21  1348.57  1374.14  1421.14
                             1423.11  1451.49  1461.90  1493.28  1562.55
                             1650.88  1699.05  1759.22  1816.91  1851.29
                             1867.14  1876.91  1913.98  2055.51  2057.10
                             2141.04  2148.78  2165.11  2175.18  2243.74
                             2316.56  4401.55  4412.66  4439.65  4445.59
                             4448.14  4474.46  4522.85  4532.35  4536.86
                             4544.32  4653.25  4670.94

 Zero-point correction=                           0.175378 (Hartree/Particle)
 Thermal correction to Energy=                    0.182995
 Thermal correction to Enthalpy=                  0.183939
 Thermal correction to Gibbs Free Energy=         0.143756
 Sum of electronic and zero-point Energies=           -311.909399
 Sum of electronic and thermal Energies=              -311.901783
 Sum of electronic and thermal Enthalpies=            -311.900838
 Sum of electronic and thermal Free Energies=         -311.941021

                     E (Thermal)             CV                S
                      KCal/Mol        Cal/Mol-Kelvin    Cal/Mol-Kelvin
 Total                  114.831             30.608             84.572
 Electronic               0.000              0.000              0.000
 Translational            0.889              2.981             39.950
 Rotational               0.889              2.981             27.965
 Vibrational            113.054             24.646             16.656
 Vibration     1          0.598              1.970              4.244
 Vibration     2          0.662              1.764              1.737
 Vibration     3          0.667              1.750              1.678
 Vibration     4          0.680              1.711              1.534
 Vibration     5          0.696              1.664              1.388
 Vibration     6          0.739              1.541              1.095
 Vibration     7          0.783              1.427              0.892
 Vibration     8          0.886              1.182              0.585
 Vibration     9          0.929              1.089              0.498

 Optimization completed.
    -- Stationary point found.
 Normal termination of Gaussian 16 at Sat Jun 11 00:35:25 2022.
