 Gaussian 16, Revision A.03,
 Gaussian 16:  ES64L-G16RevA.03 25-Dec-2016

 ----------------------------------------------------------------------
 # Opt=(Z-matrix, MaxStep=10) B3LYP/Def2TZVP geom=allcheckpoint guess=r
 ead Field=read NoSymm freq=noraman pop=none
 ----------------------------------------------------------------------

 Structure from the checkpoint file:  "checkpoint.chk"
 ------------------
 int_zmat_initalOpt
 ------------------
 Charge =  0 Multiplicity = 1

 SCF Done:  E(RB3LYP) =  -822.526924270     A.U. after   10 cycles
 SCF Done:  E(RB3LYP) =  -822.526951452     A.U. after    9 cycles
 SCF Done:  E(RB3LYP) =  -822.526959040     A.U. after    9 cycles
 SCF Done:  E(RB3LYP) =  -822.526961224     A.U. after    9 cycles
 SCF Done:  E(RB3LYP) =  -822.526962671     A.U. after    8 cycles
 SCF Done:  E(RB3LYP) =  -822.526963854     A.U. after    8 cycles
 SCF Done:  E(RB3LYP) =  -822.526964627     A.U. after    8 cycles
 SCF Done:  E(RB3LYP) =  -822.526965166     A.U. after    8 cycles
 SCF Done:  E(RB3LYP) =  -822.526965426     A.U. after    8 cycles
 SCF Done:  E(RB3LYP) =  -822.526965680     A.U. after    8 cycles
 Optimization completed.
    -- Stationary point found.
 Normal termination of Gaussian 16 at Fri Jun 10 13:04:29 2022.

 --------------------------------------------------------------------
 #N Geom=AllCheck Guess=TCheck SCRF=Check GenChk RB3LYP/def2TZVP Freq
 --------------------------------------------------------------------

 Structure from the checkpoint file:  "checkpoint.chk"
 ------------------
 int_zmat_initalOpt
 ------------------
 Charge =  0 Multiplicity = 1

                          Input orientation:
 ---------------------------------------------------------------------
 Center     Atomic      Atomic             Coordinates (Angstroms)
 Number     Number       Type             X           Y           Z
 ---------------------------------------------------------------------
      1          6           0        0.000000    0.000000    0.000000
      2          6           0        0.000000    0.000000    1.388949
      3         16           0        1.614361    0.000000   -0.843293
      4          6           0       -1.190565   -0.065279   -0.715778
      5          6           0        1.643706    1.825075   -1.250756
      6          8           0        2.630800   -0.203609    0.213586
      7          1           0        0.949547    0.013965    1.910035
      8          6           0       -1.212103   -0.045860    2.069549
      9          6           0       -2.398702   -0.108082   -0.029330
     10          1           0       -1.173675   -0.100490   -1.799442
     11          6           0        2.881060    2.143985   -2.016799
     12          1           0        0.729654    2.028383   -1.813951
     13          1           0        1.608604    2.328979   -0.283901
     14          1           0       -1.217369   -0.052982    3.152574
     15          6           0       -2.410019   -0.096063    1.363193
     16          1           0       -3.329930   -0.166606   -0.581457
     17          6           0        3.980475    2.648661   -1.468505
     18          1           0        2.875626    1.891195   -3.072732
     19          1           0       -3.351407   -0.144742    1.898178
     20          1           0        4.872453    2.827995   -2.053918
     21          1           0        4.035236    2.883146   -0.412198
 ---------------------------------------------------------------------

 SCF Done:  E(RB3LYP) =  -822.526965680     A.U. after    1 cycles

 Isotropic polarizability for W=    0.000000      132.06 Bohr**3.
 End of Minotr F.D. properties file   721 does not exist.

                      1                      2                      3
                      A                      A                      A
 Frequencies --     42.3607                54.7644                73.3258
 Red. masses --      4.4023                 3.1752                 3.3412
 Frc consts  --      0.0047                 0.0056                 0.0106
 IR Inten    --      0.8044                 0.1364                 2.1544

                      4                      5                      6
                      A                      A                      A
 Frequencies --     93.5356               191.4116               215.0730
 Red. masses --      3.2710                 5.5416                 3.6792
 Frc consts  --      0.0169                 0.1196                 0.1003
 IR Inten    --      0.8680                 4.6186                 1.1159

                      7                      8                      9
                      A                      A                      A
 Frequencies --    255.3651               309.4250               364.9940
 Red. masses --      3.3600                 5.6256                 5.0107
 Frc consts  --      0.1291                 0.3173                 0.3933
 IR Inten    --      0.3451                 2.6689                 5.6365

                     10                     11                     12
                      A                      A                      A
 Frequencies --    411.5892               419.7466               470.4750
 Red. masses --      2.9636                 1.9369                 4.4810
 Frc consts  --      0.2958                 0.2011                 0.5844
 IR Inten    --      0.1450                 2.2547                 8.4523

                     13                     14                     15
                      A                      A                      A
 Frequencies --    507.5263               536.4060               629.5847
 Red. masses --      5.1694                 2.7596                 6.4130
 Frc consts  --      0.7845                 0.4678                 1.4977
 IR Inten    --     12.8006                37.2819                 0.1062

                     16                     17                     18
                      A                      A                      A
 Frequencies --    694.0530               697.6517               725.9652
 Red. masses --      5.5572                 2.5801                 1.8662
 Frc consts  --      1.5772                 0.7399                 0.5795
 IR Inten    --      0.5135                29.4720                 9.0238

                     19                     20                     21
                      A                      A                      A
 Frequencies --    758.1964               857.6329               875.7610
 Red. masses --      1.7572                 1.2526                 1.5203
 Frc consts  --      0.5952                 0.5428                 0.6870
 IR Inten    --     36.2111                 0.3523                 6.2278

                     22                     23                     24
                      A                      A                      A
 Frequencies --    920.9104               936.2299               949.6809
 Red. masses --      1.3862                 1.2255                 2.2458
 Frc consts  --      0.6927                 0.6329                 1.1934
 IR Inten    --      1.6377                 0.1475                 0.9982

                     25                     26                     27
                      A                      A                      A
 Frequencies --    993.3688              1000.8204              1017.2489
 Red. masses --      1.2711                 1.3321                 4.2892
 Frc consts  --      0.7390                 0.7862                 2.6150
 IR Inten    --     46.7478                 0.3521                 0.7295

                     28                     29                     30
                      A                      A                      A
 Frequencies --   1017.3458              1043.4861              1072.9140
 Red. masses --      1.2375                 2.7479                 1.3863
 Frc consts  --      0.7546                 1.7629                 0.9402
 IR Inten    --      5.6922                 7.7781                 9.5960

                     31                     32                     33
                      A                      A                      A
 Frequencies --   1080.5276              1095.0535              1134.7121
 Red. masses --      2.7588                 1.7187                 7.1721
 Frc consts  --      1.8978                 1.2143                 5.4408
 IR Inten    --     10.3615                 8.1478                81.1130

                     34                     35                     36
                      A                      A                      A
 Frequencies --   1176.5888              1194.5813              1208.2880
 Red. masses --      1.1224                 1.1637                 1.3805
 Frc consts  --      0.9155                 0.9784                 1.1874
 IR Inten    --      0.0867                 1.7325                 1.2216

                     37                     38                     39
                      A                      A                      A
 Frequencies --   1221.8714              1326.1564              1334.8718
 Red. masses --      1.3274                 2.9649                 1.2474
 Frc consts  --      1.1676                 3.0722                 1.3096
 IR Inten    --      5.2727                 0.3473                 4.4380

                     40                     41                     42
                      A                      A                      A
 Frequencies --   1347.7858              1437.2656              1467.6528
 Red. masses --      1.8007                 1.1110                 1.1932
 Frc consts  --      1.9272                 1.3522                 1.5143
 IR Inten    --      2.9395                 5.5682                 7.9404

                     43                     44                     45
                      A                      A                      A
 Frequencies --   1474.9165              1511.4323              1621.1967
 Red. masses --      2.1360                 2.0250                 5.6684
 Frc consts  --      2.7377                 2.7255                 8.7778
 IR Inten    --      9.1330                10.0475                 1.5537

                     46                     47                     48
                      A                      A                      A
 Frequencies --   1624.2840              1698.4306              3035.7509
 Red. masses --      5.2644                 4.2687                 1.0574
 Frc consts  --      8.1833                 7.2551                 5.7412
 IR Inten    --     10.7256                 1.4757                18.1021

                     49                     50                     51
                      A                      A                      A
 Frequencies --   3102.6931              3144.1504              3145.0849
 Red. masses --      1.1058                 1.0772                 1.0840
 Frc consts  --      6.2718                 6.2741                 6.3174
 IR Inten    --      4.0447                12.7638                 3.5923

                     52                     53                     54
                      A                      A                      A
 Frequencies --   3150.0492              3159.3182              3169.3647
 Red. masses --      1.0736                 1.0885                 1.0930
 Frc consts  --      6.2768                 6.4010                 6.4689
 IR Inten    --      0.8094                13.7062                43.5757

                     55                     56                     57
                      A                      A                      A
 Frequencies --   3179.8727              3190.6839              3235.1944
 Red. masses --      1.0922                 1.0944                 1.1165
 Frc consts  --      6.5067                 6.5644                 6.8851
 IR Inten    --     16.9611                20.7539                 2.1777

 - Thermochemistry -
 -------------------
 Temperature   298.150 Kelvin.  Pressure   1.00000 Atm.
 Atom     1 has atomic number  6 and mass  12.00000

 Molecular mass:   166.04524 amu.
 Principal axes and moments of inertia in atomic units:
                           1         2         3
     Eigenvalues --   755.664543451.247083693.87098
           X            0.85250   0.51263  -0.10220
           Y            0.32450  -0.36572   0.87232
           Z           -0.40981   0.77682   0.47813
 This molecule is an asymmetric top.
 Rotational symmetry number  1.
 Warning -- assumption of classical behavior for rotation
           may cause significant error
 Rotational temperatures (Kelvin)      0.11462     0.02510     0.02345
 Rotational constants (GHZ):           2.38828     0.52292     0.48858
 Zero-point vibrational energy     434272.1 (Joules/Mol)
                                  103.79352 (Kcal/Mol)
 Warning -- explicit consideration of  14 degrees of freedom as
           vibrations may cause significant error
 Vibrational temperatures:     60.95    78.79   105.50   134.58   275.40
          (Kelvin)            309.44   367.41   445.19   525.14   592.19
                              603.92   676.91   730.22   771.77   905.83
                              998.59  1003.77  1044.50  1090.88  1233.94
                             1260.02  1324.98  1347.03  1366.38  1429.24
                             1439.96  1463.59  1463.73  1501.34  1543.68
                             1554.64  1575.54  1632.60  1692.85  1718.74
                             1738.46  1758.00  1908.04  1920.58  1939.16
                             2067.90  2111.63  2122.08  2174.61  2332.54
                             2336.98  2443.66  4367.77  4464.08  4523.73
                             4525.08  4532.22  4545.55  4560.01  4575.13
                             4590.68  4654.72

 Zero-point correction=                           0.165406 (Hartree/Particle)
 Thermal correction to Energy=                    0.176279
 Thermal correction to Enthalpy=                  0.177223
 Thermal correction to Gibbs Free Energy=         0.127490
 Sum of electronic and zero-point Energies=           -822.361560
 Sum of electronic and thermal Energies=              -822.350687
 Sum of electronic and thermal Enthalpies=            -822.349743
 Sum of electronic and thermal Free Energies=         -822.399476

                     E (Thermal)             CV                S
                      KCal/Mol        Cal/Mol-Kelvin    Cal/Mol-Kelvin
 Total                  110.617             40.279            104.673
 Electronic               0.000              0.000              0.000
 Translational            0.889              2.981             41.230
 Rotational               0.889              2.981             30.644
 Vibrational            108.839             34.318             32.799
 Vibration     1          0.595              1.980              5.146
 Vibration     2          0.596              1.976              4.637
 Vibration     3          0.599              1.967              4.062
 Vibration     4          0.603              1.954              3.585
 Vibration     5          0.634              1.852              2.214
 Vibration     6          0.645              1.818              2.000
 Vibration     7          0.666              1.754              1.693
 Vibration     8          0.699              1.656              1.365
 Vibration     9          0.738              1.544              1.101
 Vibration    10          0.776              1.445              0.921
 Vibration    11          0.782              1.427              0.893
 Vibration    12          0.827              1.316              0.736
 Vibration    13          0.863              1.233              0.640
 Vibration    14          0.891              1.170              0.573

                       ! Non-Optimized Parameters !
 Normal termination of Gaussian 16 at Fri Jun 10 13:20:42 2022.
