 Gaussian 16, Revision A.03,
 Gaussian 16:  ES64L-G16RevA.03 25-Dec-2016

 ----------------------------------------------------------------------
 # Opt=(TS, CalcFC, noeigentest, Z-matrix, MaxStep=10) geom=allcheckpoi
 nt guess=read Field=read NoSymm B3LYP/Def2TZVP freq=noraman pop=none
 ----------------------------------------------------------------------

 Structure from the checkpoint file:  "checkpoint.chk"
 -----------------
 ts_zmat_initalOpt
 -----------------
 Charge =  0 Multiplicity = 1

 SCF Done:  E(RB3LYP) =  -269.398449735     A.U. after   11 cycles
 SCF Done:  E(RB3LYP) =  -269.398479742     A.U. after   12 cycles
 Optimization completed.
    -- Stationary point found.
 Normal termination of Gaussian 16 at Fri Jun 10 03:40:17 2022.

 --------------------------------------------------------------------
 #N Geom=AllCheck Guess=TCheck SCRF=Check GenChk RB3LYP/def2TZVP Freq
 --------------------------------------------------------------------

 Structure from the checkpoint file:  "checkpoint.chk"
 -----------------
 ts_zmat_initalOpt
 -----------------
 Charge =  0 Multiplicity = 1

                          Input orientation:
 ---------------------------------------------------------------------
 Center     Atomic      Atomic             Coordinates (Angstroms)
 Number     Number       Type             X           Y           Z
 ---------------------------------------------------------------------
      1          1           0        0.000000    0.000000    0.000000
      2          6           0        0.000000    0.000000    1.082595
      3          6           0        1.191521    0.000000    1.781428
      4          6           0       -1.181793    0.145187    1.810427
      5          1           0        2.116042   -0.246626    1.270030
      6          6           0        1.277564    0.570363    3.065909
      7          1           0       -2.099446    0.427230    1.308941
      8          1           0       -1.309673   -0.450742    2.704235
      9          1           0        2.246712    0.642055    3.541536
     10          6           0        0.315161    1.508694    3.464090
     11          1           0        0.685151    2.338187    4.080055
     12          8           0       -0.889856    1.606820    3.084041
 ---------------------------------------------------------------------

 SCF Done:  E(RB3LYP) =  -269.398479742     A.U. after    1 cycles

 Isotropic polarizability for W=    0.000000       65.36 Bohr**3.
 End of Minotr F.D. properties file   721 does not exist.

 ******    1 imaginary frequencies (negative Signs) ******

                      1                      2                      3
                      A                      A                      A
 Frequencies --   -527.4145               220.2949               375.6019
 Red. masses --      5.4674                 2.8529                 2.5966
 Frc consts  --      0.8961                 0.0816                 0.2158
 IR Inten    --     46.9497                 4.4287                11.6334

                      4                      5                      6
                      A                      A                      A
 Frequencies --    420.2325               576.5875               590.4045
 Red. masses --      4.4708                 2.7132                 3.8597
 Frc consts  --      0.4652                 0.5315                 0.7927
 IR Inten    --      5.2778                25.5134                 3.4397

                      7                      8                      9
                      A                      A                      A
 Frequencies --    741.1984               794.4915               890.9901
 Red. masses --      1.2409                 1.3921                 2.0464
 Frc consts  --      0.4017                 0.5177                 0.9572
 IR Inten    --     43.5165                20.9614                25.6535

                     10                     11                     12
                      A                      A                      A
 Frequencies --    953.6883               959.2478               985.4408
 Red. masses --      1.6380                 1.5075                 1.3946
 Frc consts  --      0.8778                 0.8173                 0.7979
 IR Inten    --     21.9568                22.2310                12.5347

                     13                     14                     15
                      A                      A                      A
 Frequencies --   1015.2891              1045.5652              1098.2345
 Red. masses --      3.4389                 1.7202                 1.3280
 Frc consts  --      2.0886                 1.1080                 0.9437
 IR Inten    --     13.0747                 6.4652                13.5573

                     16                     17                     18
                      A                      A                      A
 Frequencies --   1123.0855              1182.6566              1246.6250
 Red. masses --      1.5922                 1.2526                 1.3165
 Frc consts  --      1.1832                 1.0322                 1.2055
 IR Inten    --      1.3691                15.1564                 4.1183

                     19                     20                     21
                      A                      A                      A
 Frequencies --   1340.2114              1411.7545              1438.7182
 Red. masses --      1.3770                 1.8409                 1.8734
 Frc consts  --      1.4572                 2.1618                 2.2848
 IR Inten    --     45.2954                50.6867                59.4789

                     22                     23                     24
                      A                      A                      A
 Frequencies --   1494.6981              1546.8793              1616.2490
 Red. masses --      1.7473                 2.1220                 5.4104
 Frc consts  --      2.3000                 2.9916                 8.3272
 IR Inten    --      6.4043                18.6945               124.3110

                     25                     26                     27
                      A                      A                      A
 Frequencies --   3014.2073              3128.6685              3161.6933
 Red. masses --      1.0847                 1.0579                 1.0880
 Frc consts  --      5.8065                 6.1009                 6.4081
 IR Inten    --     57.7254                28.3235                 2.0169

                     28                     29                     30
                      A                      A                      A
 Frequencies --   3185.1127              3189.1798              3215.4055
 Red. masses --      1.0909                 1.0941                 1.1157
 Frc consts  --      6.5204                 6.5561                 6.7961
 IR Inten    --      1.5226                 9.3762                 5.7830

 - Thermochemistry -
 -------------------
 Temperature   298.150 Kelvin.  Pressure   1.00000 Atm.
 Atom     1 has atomic number  1 and mass   1.00783

 Molecular mass:    82.04186 amu.
 Principal axes and moments of inertia in atomic units:
                           1         2         3
     Eigenvalues --   326.19348 385.96114 670.38955
           X           -0.10481   0.97708   0.18530
           Y            0.60852  -0.08436   0.78904
           Z            0.78658   0.19545  -0.58573
 This molecule is an asymmetric top.
 Rotational symmetry number  1.
 Rotational temperatures (Kelvin)      0.26553     0.22441     0.12920
 Rotational constants (GHZ):           5.53273     4.67597     2.69208
    1 imaginary frequencies ignored.
 Zero-point vibrational energy     250991.0 (Joules/Mol)
                                   59.98828 (Kcal/Mol)
 Warning -- explicit consideration of   5 degrees of freedom as
           vibrations may cause significant error
 Vibrational temperatures:    316.96   540.41   604.62   829.58   849.46
          (Kelvin)           1066.42  1143.10  1281.94  1372.14  1380.14
                             1417.83  1460.77  1504.34  1580.11  1615.87
                             1701.58  1793.62  1928.27  2031.20  2069.99
                             2150.54  2225.61  2325.42  4336.77  4501.46
                             4548.97  4582.67  4588.52  4626.25

 Zero-point correction=                           0.095597 (Hartree/Particle)
 Thermal correction to Energy=                    0.100462
 Thermal correction to Enthalpy=                  0.101406
 Thermal correction to Gibbs Free Energy=         0.067522
 Sum of electronic and zero-point Energies=           -269.302882
 Sum of electronic and thermal Energies=              -269.298018
 Sum of electronic and thermal Enthalpies=            -269.297074
 Sum of electronic and thermal Free Energies=         -269.330958

                     E (Thermal)             CV                S
                      KCal/Mol        Cal/Mol-Kelvin    Cal/Mol-Kelvin
 Total                   63.041             18.167             71.316
 Electronic               0.000              0.000              0.000
 Translational            0.889              2.981             39.128
 Rotational               0.889              2.981             25.937
 Vibrational             61.263             12.205              6.250
 Vibration     1          0.647              1.810              1.957
 Vibration     2          0.746              1.522              1.057
 Vibration     3          0.783              1.426              0.891
 Vibration     4          0.933              1.082              0.492
 Vibration     5          0.948              1.052              0.466

 Optimization completed.
    -- Stationary point found.
 Normal termination of Gaussian 16 at Fri Jun 10 03:42:51 2022.
