 Gaussian 16, Revision A.03,
 Gaussian 16:  ES64L-G16RevA.03 25-Dec-2016

 ----------------------------------------------------------------------
 # Opt=(TS, CalcFC, noeigentest, Z-matrix, MaxStep=10) geom=allcheckpoi
 nt guess=read Field=read NoSymm B3LYP/Def2TZVP freq=noraman pop=none
 ----------------------------------------------------------------------

 Structure from the checkpoint file:  "checkpoint.chk"
 -----------------
 ts_zmat_initalOpt
 -----------------
 Charge =  0 Multiplicity = 1

 SCF Done:  E(RB3LYP) =  -269.394132288     A.U. after   10 cycles
 SCF Done:  E(RB3LYP) =  -269.394149868     A.U. after   11 cycles
 Optimization completed.
    -- Stationary point found.
 Normal termination of Gaussian 16 at Fri Jun 10 22:46:13 2022.

 --------------------------------------------------------------------
 #N Geom=AllCheck Guess=TCheck SCRF=Check GenChk RB3LYP/def2TZVP Freq
 --------------------------------------------------------------------

 Structure from the checkpoint file:  "checkpoint.chk"
 -----------------
 ts_zmat_initalOpt
 -----------------
 Charge =  0 Multiplicity = 1

                          Input orientation:
 ---------------------------------------------------------------------
 Center     Atomic      Atomic             Coordinates (Angstroms)
 Number     Number       Type             X           Y           Z
 ---------------------------------------------------------------------
      1          1           0        0.000000    0.000000    0.000000
      2          6           0        0.000000    0.000000    1.081144
      3          6           0        1.256772    0.000000    1.713260
      4          6           0       -1.115303    0.487744    1.775555
      5          1           0        2.115042    0.210943    1.063852
      6          8           0        1.511592   -0.061309    2.949601
      7          6           0       -1.120221    0.537010    3.160956
      8          1           0       -1.895953    0.984327    1.208098
      9          6           0       -0.226171   -0.297221    3.828672
     10          1           0       -1.688495    1.291050    3.690874
     11          1           0        0.008183   -0.133175    4.873110
     12          1           0       -0.132314   -1.321235    3.494200
 ---------------------------------------------------------------------

 SCF Done:  E(RB3LYP) =  -269.394149868     A.U. after    1 cycles

 Isotropic polarizability for W=    0.000000       65.15 Bohr**3.
 End of Minotr F.D. properties file   721 does not exist.

 ******    1 imaginary frequencies (negative Signs) ******

                      1                      2                      3
                      A                      A                      A
 Frequencies --   -524.5156               243.6223               375.6898
 Red. masses --      5.6792                 2.8883                 2.5558
 Frc consts  --      0.9206                 0.1010                 0.2125
 IR Inten    --     44.5662                 4.7853                 9.7819

                      4                      5                      6
                      A                      A                      A
 Frequencies --    421.8642               572.7911               589.5658
 Red. masses --      4.3380                 2.7329                 3.6675
 Frc consts  --      0.4549                 0.5283                 0.7511
 IR Inten    --      4.5592                23.7781                 3.1263

                      7                      8                      9
                      A                      A                      A
 Frequencies --    719.3056               792.1399               883.4976
 Red. masses --      1.2544                 1.3778                 2.0896
 Frc consts  --      0.3824                 0.5094                 0.9610
 IR Inten    --     48.8951                27.7426                23.2317

                     10                     11                     12
                      A                      A                      A
 Frequencies --    953.2092               962.9631               981.1163
 Red. masses --      1.5943                 1.4423                 1.4337
 Frc consts  --      0.8535                 0.7880                 0.8131
 IR Inten    --     46.2260                 5.5079                 4.4571

                     13                     14                     15
                      A                      A                      A
 Frequencies --   1018.5149              1042.7440              1100.1157
 Red. masses --      3.5872                 1.7597                 1.3340
 Frc consts  --      2.1925                 1.1273                 0.9512
 IR Inten    --     13.3930                 5.4415                19.3220

                     16                     17                     18
                      A                      A                      A
 Frequencies --   1115.7632              1182.3081              1247.3818
 Red. masses --      1.5682                 1.2195                 1.3587
 Frc consts  --      1.1502                 1.0044                 1.2456
 IR Inten    --      1.5040                13.8136                 2.6385

                     19                     20                     21
                      A                      A                      A
 Frequencies --   1344.9142              1405.1215              1439.9469
 Red. masses --      1.3853                 1.8450                 1.8102
 Frc consts  --      1.4763                 2.1462                 2.2114
 IR Inten    --     45.9766                58.2675                62.1479

                     22                     23                     24
                      A                      A                      A
 Frequencies --   1496.4533              1553.8025              1614.9676
 Red. masses --      1.7161                 2.2614                 5.4831
 Frc consts  --      2.2643                 3.2167                 8.4256
 IR Inten    --      6.7648                23.5500               119.9856

                     25                     26                     27
                      A                      A                      A
 Frequencies --   3026.4513              3138.8229              3151.9274
 Red. masses --      1.0852                 1.0570                 1.0875
 Frc consts  --      5.8563                 6.1354                 6.3653
 IR Inten    --     42.5337                18.6200                 5.5220

                     28                     29                     30
                      A                      A                      A
 Frequencies --   3177.8389              3198.9883              3222.0965
 Red. masses --      1.0926                 1.0916                 1.1176
 Frc consts  --      6.5009                 6.5816                 6.8361
 IR Inten    --      5.4393                 4.5271                 7.3122

 - Thermochemistry -
 -------------------
 Temperature   298.150 Kelvin.  Pressure   1.00000 Atm.
 Atom     1 has atomic number  1 and mass   1.00783

 Molecular mass:    82.04186 amu.
 Principal axes and moments of inertia in atomic units:
                           1         2         3
     Eigenvalues --   325.30889 385.52736 665.58807
           X            0.94277   0.25977   0.20908
           Y           -0.17513  -0.14785   0.97338
           Z           -0.28376   0.95429   0.09389
 This molecule is an asymmetric top.
 Rotational symmetry number  1.
 Rotational temperatures (Kelvin)      0.26625     0.22466     0.13013
 Rotational constants (GHZ):           5.54778     4.68123     2.71150
    1 imaginary frequencies ignored.
 Zero-point vibrational energy     251059.8 (Joules/Mol)
                                   60.00474 (Kcal/Mol)
 Warning -- explicit consideration of   5 degrees of freedom as
           vibrations may cause significant error
 Vibrational temperatures:    350.52   540.53   606.97   824.12   848.25
          (Kelvin)           1034.92  1139.71  1271.16  1371.46  1385.49
                             1411.61  1465.42  1500.28  1582.82  1605.33
                             1701.08  1794.70  1935.03  2021.66  2071.76
                             2153.06  2235.58  2323.58  4354.39  4516.07
                             4534.92  4572.20  4602.63  4635.88

 Zero-point correction=                           0.095624 (Hartree/Particle)
 Thermal correction to Energy=                    0.100466
 Thermal correction to Enthalpy=                  0.101410
 Thermal correction to Gibbs Free Energy=         0.067601
 Sum of electronic and zero-point Energies=           -269.298526
 Sum of electronic and thermal Energies=              -269.293684
 Sum of electronic and thermal Enthalpies=            -269.292740
 Sum of electronic and thermal Free Energies=         -269.326549

                     E (Thermal)             CV                S
                      KCal/Mol        Cal/Mol-Kelvin    Cal/Mol-Kelvin
 Total                   63.043             18.194             71.158
 Electronic               0.000              0.000              0.000
 Translational            0.889              2.981             39.128
 Rotational               0.889              2.981             25.926
 Vibrational             61.266             12.232              6.103
 Vibration     1          0.659              1.773              1.776
 Vibration     2          0.747              1.522              1.056
 Vibration     3          0.784              1.423              0.886
 Vibration     4          0.929              1.090              0.499
 Vibration     5          0.947              1.054              0.468

 Optimization completed.
    -- Stationary point found.
 Normal termination of Gaussian 16 at Fri Jun 10 22:48:49 2022.
