 Gaussian 16, Revision A.03,
 Gaussian 16:  ES64L-G16RevA.03 25-Dec-2016

 ----------------------------------------------------------------------
 # Opt=(TS, CalcFC, noeigentest, Z-matrix, MaxStep=10) geom=allcheckpoi
 nt guess=read Field=read NoSymm B3LYP/Def2TZVP freq=noraman pop=none
 ----------------------------------------------------------------------

 Structure from the checkpoint file:  "checkpoint.chk"
 -----------------
 ts_zmat_initalOpt
 -----------------
 Charge =  0 Multiplicity = 1

 SCF Done:  E(RB3LYP) =  -822.505096533     A.U. after   12 cycles
 SCF Done:  E(RB3LYP) =  -822.505149603     A.U. after   12 cycles
 SCF Done:  E(RB3LYP) =  -822.505157271     A.U. after   12 cycles
 SCF Done:  E(RB3LYP) =  -822.505157453     A.U. after    8 cycles
 Optimization completed.
    -- Stationary point found.
 Normal termination of Gaussian 16 at Fri Jun 10 14:19:27 2022.

 --------------------------------------------------------------------
 #N Geom=AllCheck Guess=TCheck SCRF=Check GenChk RB3LYP/def2TZVP Freq
 --------------------------------------------------------------------

 Structure from the checkpoint file:  "checkpoint.chk"
 -----------------
 ts_zmat_initalOpt
 -----------------
 Charge =  0 Multiplicity = 1

                          Input orientation:
 ---------------------------------------------------------------------
 Center     Atomic      Atomic             Coordinates (Angstroms)
 Number     Number       Type             X           Y           Z
 ---------------------------------------------------------------------
      1          6           0        0.000000    0.000000    0.000000
      2          6           0        0.000000    0.000000    1.395908
      3         16           0        1.526206    0.000000   -0.919661
      4          6           0       -1.215004   -0.012724   -0.692812
      5          8           0        2.635266   -0.125004    0.113782
      6          1           0        0.949308   -0.016455    1.915409
      7          6           0       -1.204841   -0.010463    2.087559
      8          6           0       -2.413538   -0.024771    0.006239
      9          1           0       -1.214313   -0.019480   -1.777133
     10          1           0       -1.193889   -0.015949    3.171572
     11          6           0       -2.416307   -0.021033    1.400572
     12          1           0       -3.350155   -0.039583   -0.541145
     13          1           0       -3.353748   -0.035140    1.946105
     14          6           0        3.544366    1.818759    0.503697
     15          6           0        3.242564    2.346595   -0.734533
     16          1           0        4.541739    1.478010    0.742072
     17          1           0        2.859884    1.929129    1.332481
     18          6           0        1.924883    2.539967   -1.089235
     19          1           0        4.003675    2.334834   -1.506210
     20          1           0        1.650224    2.809517   -2.100513
     21          1           0        1.165398    2.677435   -0.329613
 ---------------------------------------------------------------------

 SCF Done:  E(RB3LYP) =  -822.505157453     A.U. after    1 cycles

 Isotropic polarizability for W=    0.000000      149.12 Bohr**3.
 End of Minotr F.D. properties file   721 does not exist.

 ******    1 imaginary frequencies (negative Signs) ******

                      1                      2                      3
                      A                      A                      A
 Frequencies --   -237.9582                55.3124                61.6658
 Red. masses --      6.0745                 3.8533                 5.1497
 Frc consts  --      0.2027                 0.0069                 0.0115
 IR Inten    --     33.8599                 0.2001                 2.0604

                      4                      5                      6
                      A                      A                      A
 Frequencies --     90.4448               183.4477               205.1884
 Red. masses --      3.0021                 4.7934                 5.6748
 Frc consts  --      0.0145                 0.0950                 0.1408
 IR Inten    --      0.5806                 4.8449                 6.3461

                      7                      8                      9
                      A                      A                      A
 Frequencies --    239.8069               316.7992               366.2004
 Red. masses --      7.1181                 5.2439                 2.4648
 Frc consts  --      0.2412                 0.3101                 0.1947
 IR Inten    --      6.4119                 4.4521                 2.1175

                     10                     11                     12
                      A                      A                      A
 Frequencies --    394.5687               412.1355               447.8729
 Red. masses --      8.0783                 3.0770                 1.9056
 Frc consts  --      0.7410                 0.3079                 0.2252
 IR Inten    --      5.8344                 0.2002                 3.0539

                     13                     14                     15
                      A                      A                      A
 Frequencies --    480.4660               483.6579               629.6186
 Red. masses --     10.3976                 3.5813                 6.3890
 Frc consts  --      1.4142                 0.4936                 1.4922
 IR Inten    --      8.8931                10.1889                 0.1172

                     16                     17                     18
                      A                      A                      A
 Frequencies --    674.0393               684.2746               702.8843
 Red. masses --      3.9172                 1.3046                 6.5273
 Frc consts  --      1.0486                 0.3599                 1.9000
 IR Inten    --      7.4723                 9.7832                 9.9339

                     19                     20                     21
                      A                      A                      A
 Frequencies --    724.7934               776.7409               842.3898
 Red. masses --      1.2697                 1.0891                 1.2690
 Frc consts  --      0.3930                 0.3872                 0.5306
 IR Inten    --     50.3410                 2.4930                 0.1056

                     22                     23                     24
                      A                      A                      A
 Frequencies --    875.2967               918.9339               923.8206
 Red. masses --      1.3000                 1.3650                 1.4439
 Frc consts  --      0.5868                 0.6791                 0.7260
 IR Inten    --      2.3632                10.4560                23.6568

                     25                     26                     27
                      A                      A                      A
 Frequencies --    946.1425               975.1975               977.7865
 Red. masses --      1.1519                 1.3061                 1.8323
 Frc consts  --      0.6075                 0.7318                 1.0321
 IR Inten    --      0.4789                 1.8991                26.6565

                     28                     29                     30
                      A                      A                      A
 Frequencies --   1010.9353              1033.0140              1040.8408
 Red. masses --      6.0540                 1.1223                 2.0257
 Frc consts  --      3.6453                 0.7056                 1.2930
 IR Inten    --      8.5067                33.8352                17.7778

                     31                     32                     33
                      A                      A                      A
 Frequencies --   1041.9478              1062.7083              1085.2510
 Red. masses --      2.2890                 1.8417                 2.9767
 Frc consts  --      1.4642                 1.2254                 2.0656
 IR Inten    --      7.5676                13.8120                20.1370

                     34                     35                     36
                      A                      A                      A
 Frequencies --   1095.7925              1170.5284              1194.2752
 Red. masses --      1.7414                 1.1061                 1.1752
 Frc consts  --      1.2320                 0.8929                 0.9876
 IR Inten    --      5.6354                 0.9882                 0.2478

                     37                     38                     39
                      A                      A                      A
 Frequencies --   1279.6586              1290.4416              1320.5361
 Red. masses --      1.3596                 2.1096                 2.9365
 Frc consts  --      1.3117                 2.0698                 3.0170
 IR Inten    --     11.2552                 2.8491                 2.0821

                     40                     41                     42
                      A                      A                      A
 Frequencies --   1351.2734              1441.7973              1469.7879
 Red. masses --      1.8468                 1.2321                 2.1901
 Frc consts  --      1.9868                 1.5090                 2.7875
 IR Inten    --      0.4475                25.5782                 5.7151

                     43                     44                     45
                      A                      A                      A
 Frequencies --   1506.9514              1535.7920              1582.6100
 Red. masses --      1.9839                 1.3873                 2.6438
 Frc consts  --      2.6544                 1.9279                 3.9014
 IR Inten    --     28.8084                 8.3342                67.1176

                     46                     47                     48
                      A                      A                      A
 Frequencies --   1606.6163              1619.5888              3132.1923
 Red. masses --      5.3903                 5.1420                 1.0832
 Frc consts  --      8.1976                 7.9469                 6.2612
 IR Inten    --      2.2898                66.0622                 6.4275

                     49                     50                     51
                      A                      A                      A
 Frequencies --   3140.3598              3149.7279              3163.4526
 Red. masses --      1.0568                 1.0884                 1.0913
 Frc consts  --      6.1403                 6.3618                 6.4344
 IR Inten    --      9.4975                42.2766                37.0288

                     52                     53                     54
                      A                      A                      A
 Frequencies --   3165.7676              3169.2446              3171.7755
 Red. masses --      1.0581                 1.0949                 1.0900
 Frc consts  --      6.2477                 6.4793                 6.4606
 IR Inten    --      7.9298                46.5052                 0.7670

                     55                     56                     57
                      A                      A                      A
 Frequencies --   3195.5277              3230.5882              3259.7917
 Red. masses --      1.0918                 1.1159                 1.1184
 Frc consts  --      6.5687                 6.8619                 7.0018
 IR Inten    --      6.2050                 3.4983                 3.0651

 - Thermochemistry -
 -------------------
 Temperature   298.150 Kelvin.  Pressure   1.00000 Atm.
 Atom     1 has atomic number  6 and mass  12.00000

 Molecular mass:   166.04524 amu.
 Principal axes and moments of inertia in atomic units:
                           1         2         3
     Eigenvalues --   868.259013149.115153317.64187
           X            0.91719   0.28174  -0.28175
           Y            0.30663  -0.04753   0.95064
           Z           -0.25444   0.95831   0.12999
 This molecule is an asymmetric top.
 Rotational symmetry number  1.
 Warning -- assumption of classical behavior for rotation
           may cause significant error
 Rotational temperatures (Kelvin)      0.09976     0.02750     0.02611
 Rotational constants (GHZ):           2.07857     0.57309     0.54398
    1 imaginary frequencies ignored.
 Zero-point vibrational energy     430106.9 (Joules/Mol)
                                  102.79802 (Kcal/Mol)
 Warning -- explicit consideration of  13 degrees of freedom as
           vibrations may cause significant error
 Vibrational temperatures:     79.58    88.72   130.13   263.94   295.22
          (Kelvin)            345.03   455.80   526.88   567.70   592.97
                              644.39   691.28   695.88   905.88   969.79
                              984.52  1011.29  1042.82  1117.56  1212.01
                             1259.36  1322.14  1329.17  1361.29  1403.09
                             1406.82  1454.51  1486.28  1497.54  1499.13
                             1529.00  1561.43  1576.60  1684.13  1718.30
                             1841.14  1856.66  1899.96  1944.18  2074.42
                             2114.70  2168.17  2209.66  2277.02  2311.56
                             2330.23  4506.53  4518.28  4531.76  4551.50
                             4554.83  4559.84  4563.48  4597.65  4648.10
                             4690.11

 Zero-point correction=                           0.163819 (Hartree/Particle)
 Thermal correction to Energy=                    0.174136
 Thermal correction to Enthalpy=                  0.175080
 Thermal correction to Gibbs Free Energy=         0.127195
 Sum of electronic and zero-point Energies=           -822.341338
 Sum of electronic and thermal Energies=              -822.331021
 Sum of electronic and thermal Enthalpies=            -822.330077
 Sum of electronic and thermal Free Energies=         -822.377963

                     E (Thermal)             CV                S
                      KCal/Mol        Cal/Mol-Kelvin    Cal/Mol-Kelvin
 Total                  109.272             39.453            100.784
 Electronic               0.000              0.000              0.000
 Translational            0.889              2.981             41.230
 Rotational               0.889              2.981             30.585
 Vibrational            107.495             33.491             28.970
 Vibration     1          0.596              1.975              4.618
 Vibration     2          0.597              1.973              4.403
 Vibration     3          0.602              1.956              3.650
 Vibration     4          0.631              1.862              2.293
 Vibration     5          0.640              1.833              2.086
 Vibration     6          0.657              1.780              1.804
 Vibration     7          0.704              1.642              1.327
 Vibration     8          0.739              1.542              1.096
 Vibration     9          0.762              1.482              0.983
 Vibration    10          0.776              1.444              0.919
 Vibration    11          0.807              1.366              0.802
 Vibration    12          0.837              1.293              0.709
 Vibration    13          0.840              1.286              0.700

 Optimization completed.
    -- Stationary point found.
 Normal termination of Gaussian 16 at Fri Jun 10 14:37:09 2022.
