 Gaussian 16, Revision A.03,
 Gaussian 16:  ES64L-G16RevA.03 25-Dec-2016

 ----------------------------------------------------------------------
 # Opt=(Z-matrix, MaxStep=10) B3LYP/Def2TZVP geom=allcheckpoint guess=r
 ead Field=read NoSymm freq=noraman pop=none
 ----------------------------------------------------------------------

 Structure from the checkpoint file:  "checkpoint.chk"
 ------------------
 int_zmat_initalOpt
 ------------------
 Charge =  0 Multiplicity = 1

 SCF Done:  E(RB3LYP) =  -195.372028396     A.U. after    9 cycles
 SCF Done:  E(RB3LYP) =  -195.372036537     A.U. after    9 cycles
 SCF Done:  E(RB3LYP) =  -195.372042443     A.U. after    8 cycles
 SCF Done:  E(RB3LYP) =  -195.372021546     A.U. after   11 cycles
 SCF Done:  E(RB3LYP) =  -195.372045138     A.U. after    8 cycles
 SCF Done:  E(RB3LYP) =  -195.372045050     A.U. after    7 cycles
 Optimization completed.
    -- Stationary point found.
 Normal termination of Gaussian 16 at Fri Jun 10 03:41:04 2022.

 --------------------------------------------------------------------
 #N Geom=AllCheck Guess=TCheck SCRF=Check GenChk RB3LYP/def2TZVP Freq
 --------------------------------------------------------------------

 Structure from the checkpoint file:  "checkpoint.chk"
 ------------------
 int_zmat_initalOpt
 ------------------
 Charge =  0 Multiplicity = 1

                          Input orientation:
 ---------------------------------------------------------------------
 Center     Atomic      Atomic             Coordinates (Angstroms)
 Number     Number       Type             X           Y           Z
 ---------------------------------------------------------------------
      1          6           0        0.000000    0.000000    0.000000
      2          6           0        0.000000    0.000000    1.519175
      3          6           0        1.295309    0.000000    0.757896
      4          1           0       -0.302677    0.919280   -0.484474
      5          1           0       -0.308936   -0.905046   -0.504546
      6          1           0        1.886410    0.906828    0.750734
      7          1           0        1.878546   -0.910593    0.771897
      8          6           0       -0.502038    1.182040    2.252088
      9          1           0       -0.288489   -0.944805    1.964404
     10          6           0        0.127285    2.338041    2.453712
     11          1           0       -1.506873    1.068071    2.651313
     12          1           0        1.141115    2.510827    2.110485
     13          1           0       -0.353426    3.146120    2.992146
 ---------------------------------------------------------------------

 SCF Done:  E(RB3LYP) =  -195.372045050     A.U. after    1 cycles

 Isotropic polarizability for W=    0.000000       58.55 Bohr**3.
 End of Minotr F.D. properties file   721 does not exist.

                      1                      2                      3
                      A                      A                      A
 Frequencies --     77.2269               271.2370               303.3039
 Red. masses --      1.9725                 2.6689                 1.8272
 Frc consts  --      0.0069                 0.1157                 0.0990
 IR Inten    --      0.5431                 0.6242                 1.1287

                      4                      5                      6
                      A                      A                      A
 Frequencies --    536.0047               671.4692               761.9217
 Red. masses --      2.0832                 1.5840                 1.6932
 Frc consts  --      0.3526                 0.4208                 0.5791
 IR Inten    --      0.9294                13.0875                 1.9360

                      7                      8                      9
                      A                      A                      A
 Frequencies --    811.7397               840.4072               887.3784
 Red. masses --      1.3216                 1.5718                 1.4244
 Frc consts  --      0.5131                 0.6541                 0.6609
 IR Inten    --      0.2325                 8.4007                46.9531

                     10                     11                     12
                      A                      A                      A
 Frequencies --    910.8308               944.4312              1031.6288
 Red. masses --      2.1204                 2.4129                 1.1322
 Frc consts  --      1.0364                 1.2681                 0.7099
 IR Inten    --      6.9094                16.3413                16.8226

                     13                     14                     15
                      A                      A                      A
 Frequencies --   1055.7048              1078.2293              1095.5349
 Red. masses --      1.1981                 1.3089                 1.5768
 Frc consts  --      0.7867                 0.8965                 1.1150
 IR Inten    --      6.1537                 4.7249                 8.7442

                     16                     17                     18
                      A                      A                      A
 Frequencies --   1123.2871              1139.9059              1201.7667
 Red. masses --      1.4922                 1.1920                 1.3909
 Frc consts  --      1.1093                 0.9126                 1.1835
 IR Inten    --      3.2235                 1.0080                 3.4312

                     19                     20                     21
                      A                      A                      A
 Frequencies --   1228.1715              1336.5127              1410.2418
 Red. masses --      1.9211                 1.2594                 1.4583
 Frc consts  --      1.7074                 1.3254                 1.7088
 IR Inten    --      2.4892                 1.9937                 0.2400

                     22                     23                     24
                      A                      A                      A
 Frequencies --   1452.6987              1473.8967              1508.1033
 Red. masses --      1.3166                 1.0957                 1.3219
 Frc consts  --      1.6371                 1.4024                 1.7714
 IR Inten    --      4.1506                 3.3247                 4.2318

                     25                     26                     27
                      A                      A                      A
 Frequencies --   1690.1934              3122.0682              3127.6125
 Red. masses --      4.3926                 1.0586                 1.0621
 Frc consts  --      7.3934                 6.0795                 6.1211
 IR Inten    --     44.8293                11.0843                23.8161

                     28                     29                     30
                      A                      A                      A
 Frequencies --   3131.1115              3133.7103              3156.0213
 Red. masses --      1.0670                 1.0664                 1.0892
 Frc consts  --      6.1635                 6.1699                 6.3918
 IR Inten    --     13.2230                12.0023                 0.8272

                     31                     32                     33
                      A                      A                      A
 Frequencies --   3199.0227              3206.4819              3222.9921
 Red. masses --      1.1147                 1.1173                 1.1163
 Frc consts  --      6.7210                 6.7685                 6.8319
 IR Inten    --     31.7456                 3.5083                 8.9598

 - Thermochemistry -
 -------------------
 Temperature   298.150 Kelvin.  Pressure   1.00000 Atm.
 Atom     1 has atomic number  6 and mass  12.00000

 Molecular mass:    68.06260 amu.
 Principal axes and moments of inertia in atomic units:
                           1         2         3
     Eigenvalues --   157.27902 490.76396 535.61959
           X           -0.22056   0.93736   0.26966
           Y            0.70659   0.34413  -0.61831
           Z            0.67237  -0.05416   0.73823
 This molecule is an asymmetric top.
 Rotational symmetry number  1.
 Rotational temperatures (Kelvin)      0.55070     0.17649     0.16171
 Rotational constants (GHZ):          11.47477     3.67741     3.36945
 Zero-point vibrational energy     299908.9 (Joules/Mol)
                                   71.67994 (Kcal/Mol)
 Warning -- explicit consideration of   4 degrees of freedom as
           vibrations may cause significant error
 Vibrational temperatures:    111.11   390.25   436.39   771.19   966.09
          (Kelvin)           1096.24  1167.91  1209.16  1276.74  1310.48
                             1358.83  1484.28  1518.92  1551.33  1576.23
                             1616.16  1640.07  1729.07  1767.06  1922.94
                             2029.02  2090.11  2120.61  2169.82  2431.81
                             4491.96  4499.94  4504.97  4508.71  4540.81
                             4602.68  4613.41  4637.17

 Zero-point correction=                           0.114229 (Hartree/Particle)
 Thermal correction to Energy=                    0.119650
 Thermal correction to Enthalpy=                  0.120594
 Thermal correction to Gibbs Free Energy=         0.085798
 Sum of electronic and zero-point Energies=           -195.257816
 Sum of electronic and thermal Energies=              -195.252395
 Sum of electronic and thermal Enthalpies=            -195.251451
 Sum of electronic and thermal Free Energies=         -195.286247

                     E (Thermal)             CV                S
                      KCal/Mol        Cal/Mol-Kelvin    Cal/Mol-Kelvin
 Total                   75.082             19.415             73.236
 Electronic               0.000              0.000              0.000
 Translational            0.889              2.981             38.571
 Rotational               0.889              2.981             25.228
 Vibrational             73.304             13.453              9.437
 Vibration     1          0.599              1.964              3.960
 Vibration     2          0.675              1.726              1.588
 Vibration     3          0.695              1.667              1.399
 Vibration     4          0.891              1.170              0.574

 Optimization completed.
    -- Stationary point found.
 Normal termination of Gaussian 16 at Fri Jun 10 03:45:10 2022.
