 Gaussian 16, Revision A.03,
 Gaussian 16:  ES64L-G16RevA.03 25-Dec-2016

 ----------------------------------------------------------------------
 # Opt=(Z-matrix, MaxStep=10) B3LYP/Def2TZVP geom=allcheckpoint guess=r
 ead Field=read NoSymm freq=noraman pop=none
 ----------------------------------------------------------------------

 Structure from the checkpoint file:  "checkpoint.chk"
 ------------------
 int_zmat_initalOpt
 ------------------
 Charge =  0 Multiplicity = 1

 SCF Done:  E(RB3LYP) =  -195.368835136     A.U. after    9 cycles
 SCF Done:  E(RB3LYP) =  -195.368840848     A.U. after    8 cycles
 SCF Done:  E(RB3LYP) =  -195.368845014     A.U. after    8 cycles
 SCF Done:  E(RB3LYP) =  -195.368845952     A.U. after    8 cycles
 Optimization completed.
    -- Stationary point found.
 Normal termination of Gaussian 16 at Fri Jun 10 03:18:45 2022.

 --------------------------------------------------------------------
 #N Geom=AllCheck Guess=TCheck SCRF=Check GenChk RB3LYP/def2TZVP Freq
 --------------------------------------------------------------------

 Structure from the checkpoint file:  "checkpoint.chk"
 ------------------
 int_zmat_initalOpt
 ------------------
 Charge =  0 Multiplicity = 1

                          Input orientation:
 ---------------------------------------------------------------------
 Center     Atomic      Atomic             Coordinates (Angstroms)
 Number     Number       Type             X           Y           Z
 ---------------------------------------------------------------------
      1          6           0        0.000000    0.000000    0.000000
      2          6           0        0.000000    0.000000    1.516809
      3          6           0        1.296606    0.000000    0.759855
      4          1           0       -0.295293    0.918810   -0.489387
      5          1           0       -0.305670   -0.904339   -0.508321
      6          1           0        1.885138    0.907595    0.749548
      7          1           0        1.883073   -0.908651    0.770839
      8          6           0       -0.498418    1.180188    2.259290
      9          1           0       -0.287657   -0.946572    1.961083
     10          6           0        0.181842    2.281763    2.562315
     11          1           0       -1.537889    1.111972    2.571716
     12          1           0        1.226933    2.402437    2.302542
     13          1           0       -0.286787    3.098288    3.097343
 ---------------------------------------------------------------------

 SCF Done:  E(RB3LYP) =  -195.368845952     A.U. after    1 cycles

 Isotropic polarizability for W=    0.000000       58.32 Bohr**3.
 End of Minotr F.D. properties file   721 does not exist.

                      1                      2                      3
                      A                      A                      A
 Frequencies --     89.0793               269.5074               306.4659
 Red. masses --      2.0245                 2.6444                 1.8155
 Frc consts  --      0.0095                 0.1132                 0.1005
 IR Inten    --      0.5671                 0.4598                 0.9649

                      4                      5                      6
                      A                      A                      A
 Frequencies --    535.8465               667.6552               759.8835
 Red. masses --      2.0814                 1.6097                 1.6900
 Frc consts  --      0.3521                 0.4228                 0.5750
 IR Inten    --      0.4288                13.5183                 1.7058

                      7                      8                      9
                      A                      A                      A
 Frequencies --    813.3734               839.5170               907.8291
 Red. masses --      1.2791                 1.4681                 2.2372
 Frc consts  --      0.4986                 0.6096                 1.0863
 IR Inten    --      0.3635                 8.9504                14.9872

                     10                     11                     12
                      A                      A                      A
 Frequencies --    922.1052               946.8429              1029.1341
 Red. masses --      1.4512                 2.4528                 1.1195
 Frc consts  --      0.7270                 1.2956                 0.6986
 IR Inten    --     35.5523                14.0043                17.2381

                     13                     14                     15
                      A                      A                      A
 Frequencies --   1053.9182              1081.0693              1096.6337
 Red. masses --      1.2015                 1.3318                 1.5625
 Frc consts  --      0.7863                 0.9171                 1.1071
 IR Inten    --      6.0134                 3.7885                 8.9840

                     16                     17                     18
                      A                      A                      A
 Frequencies --   1123.0783              1136.7621              1201.1243
 Red. masses --      1.4871                 1.2008                 1.3900
 Frc consts  --      1.1051                 0.9142                 1.1815
 IR Inten    --      1.6813                 0.7623                 2.7350

                     19                     20                     21
                      A                      A                      A
 Frequencies --   1227.5393              1335.8484              1406.4364
 Red. masses --      1.8997                 1.2614                 1.4999
 Frc consts  --      1.6866                 1.3262                 1.7481
 IR Inten    --      2.1839                 0.5452                 0.0324

                     22                     23                     24
                      A                      A                      A
 Frequencies --   1456.2157              1473.6195              1508.7676
 Red. masses --      1.2907                 1.0946                 1.3346
 Frc consts  --      1.6126                 1.4005                 1.7899
 IR Inten    --      3.4926                 3.5270                 2.8340

                     25                     26                     27
                      A                      A                      A
 Frequencies --   1697.7277              3121.5677              3130.8525
 Red. masses --      4.4882                 1.0813                 1.0519
 Frc consts  --      7.6218                 6.2077                 6.0748
 IR Inten    --     33.0955                13.1931                15.8878

                     28                     29                     30
                      A                      A                      A
 Frequencies --   3133.8508              3136.5934              3142.9530
 Red. masses --      1.0622                 1.0608                 1.0859
 Frc consts  --      6.1464                 6.1489                 6.3198
 IR Inten    --      8.8424                18.3953                 1.8275

                     31                     32                     33
                      A                      A                      A
 Frequencies --   3206.7110              3211.4442              3222.0180
 Red. masses --      1.1187                 1.1154                 1.1163
 Frc consts  --      6.7774                 6.7778                 6.8279
 IR Inten    --      2.0853                21.8543                13.0195

 - Thermochemistry -
 -------------------
 Temperature   298.150 Kelvin.  Pressure   1.00000 Atm.
 Atom     1 has atomic number  6 and mass  12.00000

 Molecular mass:    68.06260 amu.
 Principal axes and moments of inertia in atomic units:
                           1         2         3
     Eigenvalues --   155.43816 492.06819 542.26457
           X           -0.20179   0.95819   0.20285
           Y            0.68923   0.28608  -0.66567
           Z            0.69587  -0.00548   0.71815
 This molecule is an asymmetric top.
 Rotational symmetry number  1.
 Rotational temperatures (Kelvin)      0.55722     0.17602     0.15973
 Rotational constants (GHZ):          11.61067     3.66766     3.32816
 Zero-point vibrational energy     300214.7 (Joules/Mol)
                                   71.75302 (Kcal/Mol)
 Warning -- explicit consideration of   4 degrees of freedom as
           vibrations may cause significant error
 Vibrational temperatures:    128.17   387.76   440.94   770.96   960.61
          (Kelvin)           1093.30  1170.26  1207.88  1306.16  1326.70
                             1362.30  1480.69  1516.35  1555.42  1577.81
                             1615.86  1635.55  1728.15  1766.16  1921.99
                             2023.55  2095.17  2120.21  2170.78  2442.65
                             4491.24  4504.60  4508.91  4512.86  4522.01
                             4613.74  4620.55  4635.77

 Zero-point correction=                           0.114346 (Hartree/Particle)
 Thermal correction to Energy=                    0.119738
 Thermal correction to Enthalpy=                  0.120682
 Thermal correction to Gibbs Free Energy=         0.086025
 Sum of electronic and zero-point Energies=           -195.254500
 Sum of electronic and thermal Energies=              -195.249108
 Sum of electronic and thermal Enthalpies=            -195.248164
 Sum of electronic and thermal Free Energies=         -195.282821

                     E (Thermal)             CV                S
                      KCal/Mol        Cal/Mol-Kelvin    Cal/Mol-Kelvin
 Total                   75.137             19.372             72.942
 Electronic               0.000              0.000              0.000
 Translational            0.889              2.981             38.571
 Rotational               0.889              2.981             25.231
 Vibrational             73.359             13.411              9.140
 Vibration     1          0.602              1.957              3.680
 Vibration     2          0.674              1.729              1.599
 Vibration     3          0.697              1.661              1.381
 Vibration     4          0.891              1.171              0.574

 Optimization completed.
    -- Stationary point found.
 Normal termination of Gaussian 16 at Fri Jun 10 03:20:56 2022.
