 Gaussian 16, Revision A.03,
 Gaussian 16:  ES64L-G16RevA.03 25-Dec-2016

 ----------------------------------------------------------------------
 # Opt=(Z-matrix, MaxStep=10) B3LYP/Def2TZVP geom=allcheckpoint guess=r
 ead Field=read NoSymm freq=noraman pop=none
 ----------------------------------------------------------------------

 Structure from the checkpoint file:  "checkpoint.chk"
 ------------------
 int_zmat_initalOpt
 ------------------
 Charge =  0 Multiplicity = 1

 SCF Done:  E(RB3LYP) =  -210.249669335     A.U. after   10 cycles
 SCF Done:  E(RB3LYP) =  -210.249674597     A.U. after    8 cycles
 SCF Done:  E(RB3LYP) =  -210.249676478     A.U. after    7 cycles
 Optimization completed.
    -- Stationary point found.
 Normal termination of Gaussian 16 at Fri Jun 10 23:02:16 2022.

 --------------------------------------------------------------------
 #N Geom=AllCheck Guess=TCheck SCRF=Check GenChk RB3LYP/def2TZVP Freq
 --------------------------------------------------------------------

 Structure from the checkpoint file:  "checkpoint.chk"
 ------------------
 int_zmat_initalOpt
 ------------------
 Charge =  0 Multiplicity = 1

                          Input orientation:
 ---------------------------------------------------------------------
 Center     Atomic      Atomic             Coordinates (Angstroms)
 Number     Number       Type             X           Y           Z
 ---------------------------------------------------------------------
      1          1           0        0.000000    0.000000    0.000000
      2          6           0        0.000000    0.000000    1.077236
      3          6           0        1.148982    0.000000    1.912529
      4          6           0       -1.104093    0.017609    1.893117
      5          1           0        2.176830   -0.008333    1.590443
      6          6           0        0.713469    0.016988    3.213351
      7          7           0       -0.660293    0.026203    3.194133
      8          1           0       -2.155161    0.029684    1.658700
      9          1           0        1.262956    0.026416    4.139236
     10          1           0       -1.246903    0.047421    4.006639
 ---------------------------------------------------------------------

 SCF Done:  E(RB3LYP) =  -210.249676478     A.U. after    1 cycles

 Isotropic polarizability for W=    0.000000       49.88 Bohr**3.
 End of Minotr F.D. properties file   721 does not exist.

                      1                      2                      3
                      A                      A                      A
 Frequencies --    355.4069               625.8176               636.1124
 Red. masses --      1.3704                 3.2162                 2.4941
 Frc consts  --      0.1020                 0.7421                 0.5946
 IR Inten    --     68.0561                 0.0381                 0.2090

                      4                      5                      6
                      A                      A                      A
 Frequencies --    663.2792               724.2248               830.5592
 Red. masses --      1.2858                 1.2093                 1.2142
 Frc consts  --      0.3333                 0.3737                 0.4935
 IR Inten    --      4.3279               146.2040                10.6999

                      7                      8                      9
                      A                      A                      A
 Frequencies --    876.3857               896.8645               904.8739
 Red. masses --      5.0562                 1.2999                 4.1341
 Frc consts  --      2.2881                 0.6161                 1.9944
 IR Inten    --      2.0952                 0.0730                 0.6551

                     10                     11                     12
                      A                      A                      A
 Frequencies --   1036.1140              1067.3950              1088.0048
 Red. masses --      1.4801                 1.4342                 1.5648
 Frc consts  --      0.9362                 0.9627                 1.0914
 IR Inten    --     35.5016                30.5263                 4.4828

                     13                     14                     15
                      A                      A                      A
 Frequencies --   1150.7514              1171.8901              1314.8323
 Red. masses --      1.2378                 3.3480                 1.3628
 Frc consts  --      0.9657                 2.7090                 1.3881
 IR Inten    --      0.4724                 6.6222                 0.6790

                     16                     17                     18
                      A                      A                      A
 Frequencies --   1417.2569              1445.4562              1494.8178
 Red. masses --      4.2086                 2.8994                 2.6248
 Frc consts  --      4.9806                 3.5691                 3.4556
 IR Inten    --      4.6578                 5.7228                 6.6586

                     19                     20                     21
                      A                      A                      A
 Frequencies --   1577.9921              3240.8236              3248.8741
 Red. masses --      3.1510                 1.0880                 1.0919
 Frc consts  --      4.6228                 6.7327                 6.7903
 IR Inten    --      2.1330                 1.2141                 0.7025

                     22                     23                     24
                      A                      A                      A
 Frequencies --   3258.8400              3267.6922              3677.1794
 Red. masses --      1.1003                 1.1068                 1.0798
 Frc consts  --      6.8846                 6.9630                 8.6028
 IR Inten    --      4.2847                 1.6649                34.0450

 - Thermochemistry -
 -------------------
 Temperature   298.150 Kelvin.  Pressure   1.00000 Atm.
 Atom     1 has atomic number  1 and mass   1.00783

 Molecular mass:    67.04220 amu.
 Principal axes and moments of inertia in atomic units:
                           1         2         3
     Eigenvalues --   196.54113 199.30308 395.84243
           X           -0.60313   0.79761   0.00784
           Y            0.01268  -0.00024   0.99992
           Z            0.79755   0.60318  -0.00997
 This molecule is an asymmetric top.
 Rotational symmetry number  1.
 Rotational temperatures (Kelvin)      0.44069     0.43458     0.21881
 Rotational constants (GHZ):           9.18251     9.05526     4.55924
 Zero-point vibrational energy     215157.0 (Joules/Mol)
                                   51.42376 (Kcal/Mol)
 Warning -- explicit consideration of   1 degrees of freedom as
           vibrations may cause significant error
 Vibrational temperatures:    511.35   900.41   915.22   954.31  1042.00
          (Kelvin)           1194.99  1260.92  1290.39  1301.91  1490.74
                             1535.74  1565.40  1655.67  1686.09  1891.75
                             2039.12  2079.69  2150.71  2270.38  4662.82
                             4674.41  4688.74  4701.48  5290.64

 Zero-point correction=                           0.081949 (Hartree/Particle)
 Thermal correction to Energy=                    0.086050
 Thermal correction to Enthalpy=                  0.086995
 Thermal correction to Gibbs Free Energy=         0.055465
 Sum of electronic and zero-point Energies=           -210.167727
 Sum of electronic and thermal Energies=              -210.163626
 Sum of electronic and thermal Enthalpies=            -210.162682
 Sum of electronic and thermal Free Energies=         -210.194212

                     E (Thermal)             CV                S
                      KCal/Mol        Cal/Mol-Kelvin    Cal/Mol-Kelvin
 Total                   53.997             15.144             66.360
 Electronic               0.000              0.000              0.000
 Translational            0.889              2.981             38.526
 Rotational               0.889              2.981             24.254
 Vibrational             52.220              9.182              3.580
 Vibration     1          0.731              1.564              1.142

                       ! Non-Optimized Parameters !
 Normal termination of Gaussian 16 at Fri Jun 10 23:03:43 2022.
