 Gaussian 16, Revision A.03,
 Gaussian 16:  ES64L-G16RevA.03 25-Dec-2016

 --------------------------
 # sp B3LYP/Def2TZVP NoSymm
 --------------------------

 ----------------------------
 int_initalOpt_zmat_AlignedSp
 ----------------------------
 Symbolic Z-matrix:
 Charge =  0 Multiplicity = 1

                          Input orientation:
 ---------------------------------------------------------------------
 Center     Atomic      Atomic             Coordinates (Angstroms)
 Number     Number       Type             X           Y           Z
 ---------------------------------------------------------------------
      1          6           0        0.000000    0.000000    0.000000
      2          6           0        0.000000    0.000000    1.586298
      3          6           0        1.357741    0.000000   -0.630293
      4          6           0       -0.758936   -1.349780    0.073166
      5          1           0       -0.572917    0.829609   -0.424433
      6          6           0       -0.300218   -1.514518    1.541381
      7          6           0        1.161405    0.550406    2.342044
      8          6           0        1.908479   -0.955480   -1.369496
      9          1           0       -1.836171   -1.198984   -0.003904
     10          1           0       -0.473193   -2.129741   -0.630162
     11          1           0       -0.900398    0.537726    1.901950
     12          1           0        1.934096    0.905494   -0.455602
     13          6           0        1.979641   -0.132715    3.133836
     14          1           0        1.322571    1.620973    2.229856
     15          1           0        0.611529   -2.108557    1.606206
     16          1           0       -1.022780   -1.900700    2.260200
     17          1           0        1.401867   -1.886060   -1.592501
     18          1           0        2.900133   -0.835210   -1.786830
     19          1           0        2.791790    0.353785    3.658859
     20          1           0        1.869078   -1.198708    3.291770
 ---------------------------------------------------------------------

 SCF Done:  E(RB3LYP) =  -312.116801195     A.U. after   13 cycles

 Alpha  occ. eigenvalues --  -10.18245 -10.18171 -10.17374 -10.17350 -10.16886
 Alpha  occ. eigenvalues --  -10.16703 -10.16162 -10.16074  -0.86026  -0.77607
 Alpha  occ. eigenvalues --   -0.75962  -0.67169  -0.66042  -0.59491  -0.55949
 Alpha  occ. eigenvalues --   -0.51312  -0.49606  -0.48263  -0.45706  -0.44642
 Alpha  occ. eigenvalues --   -0.40961  -0.39706  -0.36995  -0.36555  -0.34887
 Alpha  occ. eigenvalues --   -0.32688  -0.32523  -0.30629  -0.26335  -0.25433
 Alpha virt. eigenvalues --   -0.00015   0.00790   0.03672   0.04979   0.06218
 Alpha virt. eigenvalues --    0.06789   0.08623   0.09388   0.09762   0.11098
 Alpha virt. eigenvalues --    0.12636   0.13060   0.13914   0.14354   0.14583

 Mulliken charges:
               1
     1  C    0.041395
     2  C    0.030278
     3  C   -0.147422
     4  C   -0.192472
     5  H    0.081059
     6  C   -0.177134
     7  C   -0.164264
     8  C   -0.258590
     9  H    0.086222
    10  H    0.088446
    11  H    0.068667
    12  H    0.091059
    13  C   -0.247469
    14  H    0.099772
    15  H    0.086632
    16  H    0.092173
    17  H    0.098727
    18  H    0.109235
    19  H    0.109096
    20  H    0.104590
 Sum of Mulliken charges =  -0.00000

 Dipole moment (field-independent basis, Debye):
    X=             -0.5045    Y=              0.2076    Z=              0.0183  Tot=              0.5458
 Quadrupole moment (field-independent basis, Debye-Ang):
   XX=            -50.4567   YY=            -49.1215   ZZ=            -53.8141
   XY=              0.5411   XZ=             -0.2352   YZ=              0.4288

 Normal termination of Gaussian 16 at Fri Jun 10 22:21:08 2022.
