 Gaussian 16, Revision A.03,
 Gaussian 16:  ES64L-G16RevA.03 25-Dec-2016

 ----------------------------------------------------------------------
 # Opt=(TS, CalcFC, noeigentest, Z-matrix, MaxStep=10) geom=allcheckpoi
 nt guess=read Field=read NoSymm B3LYP/Def2TZVP freq=noraman pop=none
 ----------------------------------------------------------------------

 Structure from the checkpoint file:  "checkpoint.chk"
 -----------------
 ts_zmat_initalOpt
 -----------------
 Charge =  0 Multiplicity = 1

 SCF Done:  E(RB3LYP) =  -439.149295972     A.U. after   11 cycles
 SCF Done:  E(RB3LYP) =  -439.149313947     A.U. after   13 cycles
 SCF Done:  E(RB3LYP) =  -439.149314127     A.U. after    9 cycles
 Optimization completed.
    -- Stationary point found.

 1\1\GINC-BHC0108\FTS\RB3LYP\def2TZVP\C8H7N1O1\DHANAWAY\10-Jun-2022\1\\
 # Opt=(TS, CalcFC, noeigentest, Z-matrix, MaxStep=10) geom=allcheckpoi
 nt guess=read Field=read NoSymm B3LYP/Def2TZVP freq=noraman pop=none\\
 ts_zmat_initalOpt\\0,1\C\C,1,R2\C,1,R3,2,A3\H,1,R4,2,A4,3,D4,0\O,3,R5,
 1,A5,2,D5,0\C,2,R6,1,A6,3,D6,0\H,2,R7,1,A7,6,D7,0\C,6,R8,2,A8,1,D8,0\H
 ,6,R9,2,A9,8,D9,0\C,8,R10,6,A10,2,D10,0\N,8,R11,6,A11,10,D11,0\H,10,R1
 2,8,A12,6,D12,0\C,10,R13,8,A13,12,D13,0\C,11,R14,8,A14,6,D14,0\H,11,R1
 5,8,A15,14,D15,0\H,13,R16,10,A16,8,D16,0\H,14,R17,11,A17,8,D17,0\\R2=1

 Normal termination of Gaussian 16 at Fri Jun 10 04:09:56 2022.

 --------------------------------------------------------------------
 #N Geom=AllCheck Guess=TCheck SCRF=Check GenChk RB3LYP/def2TZVP Freq
 --------------------------------------------------------------------

 Structure from the checkpoint file:  "checkpoint.chk"
 -----------------
 ts_zmat_initalOpt
 -----------------
 Charge =  0 Multiplicity = 1

                          Input orientation:
 ---------------------------------------------------------------------
 Center     Atomic      Atomic             Coordinates (Angstroms)
 Number     Number       Type             X           Y           Z
 ---------------------------------------------------------------------
      1          6           0        0.000000    0.000000    0.000000
      2          6           0        0.000000    0.000000    1.429863
      3          6           0        1.061058    0.000000   -0.857750
      4          1           0       -0.922444    0.290653   -0.498545
      5          8           0        1.417704    0.013446   -1.985542
      6          6           0        1.081818   -0.059705    2.249850
      7          1           0       -0.974816    0.109433    1.890899
      8          6           0        2.381273   -0.152019    1.674156
      9          1           0        0.964864    0.056215    3.319097
     10          6           0        2.699498   -0.688103    0.406844
     11          7           0        3.518402    0.401324    2.169625
     12          1           0        2.200045   -1.569459    0.027904
     13          6           0        4.094300   -0.422868    0.182516
     14          6           0        4.561374    0.243154    1.273415
     15          1           0        3.581324    0.907953    3.038076
     16          1           0        4.682255   -0.734883   -0.663752
     17          1           0        5.547115    0.606908    1.509386
 ---------------------------------------------------------------------

 SCF Done:  E(RB3LYP) =  -439.149314127     A.U. after    1 cycles

 Isotropic polarizability for W=    0.000000      108.83 Bohr**3.
 End of Minotr F.D. properties file   721 does not exist.

 ******    1 imaginary frequencies (negative Signs) ******

                      1                      2                      3
                      A                      A                      A
 Frequencies --   -353.6253               105.4952               138.2536
 Red. masses --      7.0324                 5.8900                 4.6462
 Frc consts  --      0.5181                 0.0386                 0.0523
 IR Inten    --    181.3912                 2.2695                 2.3486

                      4                      5                      6
                      A                      A                      A
 Frequencies --    269.4092               283.3725               319.7340
 Red. masses --      4.6559                 3.4534                 7.4112
 Frc consts  --      0.1991                 0.1634                 0.4464
 IR Inten    --     24.5183                 4.1049                 6.6098

                      7                      8                      9
                      A                      A                      A
 Frequencies --    458.0915               510.9217               545.6744
 Red. masses --      4.4947                 4.4381                 2.8717
 Frc consts  --      0.5557                 0.6826                 0.5038
 IR Inten    --     12.8496                 1.9802                 0.9380

                     10                     11                     12
                      A                      A                      A
 Frequencies --    586.3099               611.4863               626.1386
 Red. masses --      1.3762                 3.4143                 2.6371
 Frc consts  --      0.2787                 0.7522                 0.6091
 IR Inten    --     41.7622                 8.8624                 8.5045

                     13                     14                     15
                      A                      A                      A
 Frequencies --    670.7671               706.2180               750.6675
 Red. masses --      1.7012                 2.5424                 1.3433
 Frc consts  --      0.4510                 0.7471                 0.4460
 IR Inten    --     57.4581                31.8727                64.4584

                     16                     17                     18
                      A                      A                      A
 Frequencies --    768.2767               800.0842               851.7314
 Red. masses --      1.7590                 2.1216                 4.2867
 Frc consts  --      0.6117                 0.8002                 1.8322
 IR Inten    --      2.8535                74.7453                44.0931

                     19                     20                     21
                      A                      A                      A
 Frequencies --    881.9052               896.2667               957.1155
 Red. masses --      1.3726                 4.7553                 1.3361
 Frc consts  --      0.6290                 2.2506                 0.7211
 IR Inten    --      0.8017                11.5138                 3.1971

                     22                     23                     24
                      A                      A                      A
 Frequencies --    980.3869               989.8124              1047.8838
 Red. masses --      2.0672                 2.4935                 1.3433
 Frc consts  --      1.1706                 1.4393                 0.8690
 IR Inten    --     12.4551                 3.7290                 6.6747

                     25                     26                     27
                      A                      A                      A
 Frequencies --   1099.9983              1126.5548              1146.7415
 Red. masses --      2.0246                 1.6432                 1.4189
 Frc consts  --      1.4434                 1.2287                 1.0994
 IR Inten    --     14.3588                 9.3971                 7.6701

                     28                     29                     30
                      A                      A                      A
 Frequencies --   1204.7219              1250.1201              1286.1074
 Red. masses --      1.1240                 1.9716                 1.7214
 Frc consts  --      0.9612                 1.8154                 1.6776
 IR Inten    --      8.3384                 1.1037                 3.3645

                     31                     32                     33
                      A                      A                      A
 Frequencies --   1393.2551              1413.1232              1437.6449
 Red. masses --      1.8131                 2.8007                 3.2466
 Frc consts  --      2.0736                 3.2951                 3.9535
 IR Inten    --      8.3535                 8.1215                46.9490

                     34                     35                     36
                      A                      A                      A
 Frequencies --   1458.6268              1528.3209              1597.6692
 Red. masses --      2.2049                 4.5957                 4.1560
 Frc consts  --      2.7639                 6.3245                 6.2502
 IR Inten    --      4.2555                 1.4857                66.8663

                     37                     38                     39
                      A                      A                      A
 Frequencies --   1604.5824              1945.9306              3108.5250
 Red. masses --      4.3224                12.6383                 1.0833
 Frc consts  --      6.5569                28.1964                 6.1673
 IR Inten    --     43.7565               800.5957                32.5435

                     40                     41                     42
                      A                      A                      A
 Frequencies --   3165.0152              3184.8752              3193.4990
 Red. masses --      1.0868                 1.0902                 1.0930
 Frc consts  --      6.4143                 6.5152                 6.5677
 IR Inten    --     11.5433                 2.9322                 4.1763

                     43                     44                     45
                      A                      A                      A
 Frequencies --   3251.6288              3270.2497              3624.7391
 Red. masses --      1.0905                 1.1047                 1.0806
 Frc consts  --      6.7934                 6.9606                 8.3651
 IR Inten    --      3.3317                 0.3838               106.6180

 - Thermochemistry -
 -------------------
 Temperature   298.150 Kelvin.  Pressure   1.00000 Atm.
 Atom     1 has atomic number  6 and mass  12.00000

 Molecular mass:   133.05276 amu.
 Principal axes and moments of inertia in atomic units:
                           1         2         3
     Eigenvalues --   831.824051366.005872098.16740
           X            0.87499  -0.48396   0.01314
           Y            0.02176   0.06643   0.99755
           Z            0.48365   0.87257  -0.06866
 This molecule is an asymmetric top.
 Rotational symmetry number  1.
 Warning -- assumption of classical behavior for rotation
           may cause significant error
 Rotational temperatures (Kelvin)      0.10413     0.06341     0.04128
 Rotational constants (GHZ):           2.16962     1.32118     0.86015
    1 imaginary frequencies ignored.
 Zero-point vibrational energy     341222.4 (Joules/Mol)
                                   81.55411 (Kcal/Mol)
 Warning -- explicit consideration of  10 degrees of freedom as
           vibrations may cause significant error
 Vibrational temperatures:    151.78   198.92   387.62   407.71   460.03
          (Kelvin)            659.09   735.10   785.10   843.57   879.79
                              900.87   965.08  1016.09  1080.04  1105.38
                             1151.14  1225.45  1268.86  1289.53  1377.08
                             1410.56  1424.12  1507.67  1582.65  1620.86
                             1649.91  1733.33  1798.64  1850.42  2004.58
                             2033.17  2068.45  2098.64  2198.91  2298.69
                             2308.64  2799.76  4472.47  4553.75  4582.33
                             4594.73  4678.37  4705.16  5215.19

 Zero-point correction=                           0.129965 (Hartree/Particle)
 Thermal correction to Energy=                    0.137589
 Thermal correction to Enthalpy=                  0.138533
 Thermal correction to Gibbs Free Energy=         0.097556
 Sum of electronic and zero-point Energies=           -439.019349
 Sum of electronic and thermal Energies=              -439.011725
 Sum of electronic and thermal Enthalpies=            -439.010781
 Sum of electronic and thermal Free Energies=         -439.051758

                     E (Thermal)             CV                S
                      KCal/Mol        Cal/Mol-Kelvin    Cal/Mol-Kelvin
 Total                   86.339             30.479             86.244
 Electronic               0.000              0.000              0.000
 Translational            0.889              2.981             40.569
 Rotational               0.889              2.981             29.257
 Vibrational             84.561             24.517             16.418
 Vibration     1          0.605              1.945              3.350
 Vibration     2          0.614              1.915              2.828
 Vibration     3          0.674              1.729              1.600
 Vibration     4          0.682              1.704              1.513
 Vibration     5          0.706              1.636              1.311
 Vibration     6          0.816              1.343              0.772
 Vibration     7          0.866              1.226              0.631
 Vibration     8          0.901              1.149              0.553
 Vibration     9          0.943              1.061              0.474
 Vibration    10          0.971              1.008              0.430

 Optimization completed.
    -- Stationary point found.
 Normal termination of Gaussian 16 at Fri Jun 10 04:21:39 2022.
