 Gaussian 16, Revision A.03,
 Gaussian 16:  ES64L-G16RevA.03 25-Dec-2016

 --------------------------
 # sp B3LYP/Def2TZVP NoSymm
 --------------------------

 ----------------------------------
 int_initalOptXYZ_aligned_AlignedSp
 ----------------------------------
 Symbolic Z-matrix:
 Charge =  0 Multiplicity = 1

                          Input orientation:
 ---------------------------------------------------------------------
 Center     Atomic      Atomic             Coordinates (Angstroms)
 Number     Number       Type             X           Y           Z
 ---------------------------------------------------------------------
      1          6           0       -0.732228   -0.225993    0.257387
      2          6           0       -1.109631    1.082958   -0.008719
      3         16           0        0.960104   -0.547759    0.817269
      4          6           0        4.055670   -0.920696   -1.129622
      5          6           0        3.012092   -1.616915   -0.694880
      6          1           0        5.067918   -1.280732   -0.999104
      7          1           0        3.933841    0.034087   -1.627060
      8          6           0        1.598285   -1.170192   -0.822877
      9          1           0        3.174090   -2.563597   -0.187705
     10          1           0        0.929811   -1.982609   -1.114738
     11          1           0        1.484083   -0.331996   -1.511221
     12          8           0        1.610227    0.770019    1.045426
     13          1           0       -0.378541    1.873483    0.103501
     14          6           0       -2.419035    1.346108   -0.397525
     15          1           0       -2.722143    2.364143   -0.607641
     16          6           0       -3.337856    0.308381   -0.510621
     17          1           0       -4.357140    0.517836   -0.809271
     18          6           0       -2.952929   -0.998956   -0.226290
     19          1           0       -3.671164   -1.805602   -0.301289
     20          6           0       -1.648128   -1.269592    0.166828
     21          1           0       -1.352077   -2.283472    0.411194
 ---------------------------------------------------------------------

 SCF Done:  E(RB3LYP) =  -822.532464588     A.U. after   17 cycles

 Alpha  occ. eigenvalues --  -88.95480 -19.09026 -10.20812 -10.20798 -10.19748
 Alpha  occ. eigenvalues --  -10.19298 -10.19115 -10.19062 -10.18982 -10.18896
 Alpha  occ. eigenvalues --  -10.17660  -8.01870  -5.98086  -5.98052  -5.97519
 Alpha  occ. eigenvalues --   -1.01956  -0.87836  -0.81831  -0.78098  -0.76632
 Alpha  occ. eigenvalues --   -0.72752  -0.65816  -0.62607  -0.59531  -0.57046
 Alpha  occ. eigenvalues --   -0.53459  -0.49183  -0.47732  -0.47307  -0.45538
 Alpha  occ. eigenvalues --   -0.45299  -0.44145  -0.42551  -0.40825  -0.39363
 Alpha  occ. eigenvalues --   -0.37521  -0.37266  -0.36365  -0.35926  -0.29535
 Alpha  occ. eigenvalues --   -0.28027  -0.27448  -0.27277  -0.23423
 Alpha virt. eigenvalues --   -0.04323  -0.02998  -0.01336   0.02373   0.03052
 Alpha virt. eigenvalues --    0.03964   0.05443   0.06638   0.07132   0.08058
 Alpha virt. eigenvalues --    0.08873   0.10254   0.10883   0.11217   0.11937

 Mulliken charges:
               1
     1  C    0.070661
     2  C   -0.167857
     3  S    0.484715
     4  C   -0.237074
     5  C   -0.100959
     6  H    0.116873
     7  H    0.113776
     8  C   -0.226617
     9  H    0.113812
    10  H    0.121098
    11  H    0.130691
    12  O   -0.544782
    13  H    0.145802
    14  C   -0.089842
    15  H    0.118351
    16  C   -0.103612
    17  H    0.116332
    18  C   -0.105345
    19  H    0.116120
    20  C   -0.180643
    21  H    0.108501
 Sum of Mulliken charges =  -0.00000

 Dipole moment (field-independent basis, Debye):
    X=             -2.0923    Y=             -2.1313    Z=             -2.1068  Tot=              3.6550
 Quadrupole moment (field-independent basis, Debye-Ang):
   XX=            -66.5419   YY=            -67.4615   ZZ=            -77.3149
   XY=             -4.0310   XZ=             -2.4583   YZ=             -3.2354

 1\1\GINC-BHC0029\SP\RB3LYP\def2TZVP\C9H10O1S1\DHANAWAY\10-Jun-2022\0\\
 # sp B3LYP/Def2TZVP NoSymm\\int_initalOptXYZ_aligned_AlignedSp\\0,1\C,
 0,-0.732228,-0.225993,0.257387\C,0,-1.109631,1.082958,-0.008719\S,0,0.
 960104,-0.547759,0.817269\C,0,4.05567,-0.920696,-1.129622\C,0,3.012092
 ,-1.616915,-0.69488\H,0,5.067918,-1.280732,-0.999104\H,0,3.933841,0.03
 4087,-1.62706\C,0,1.598285,-1.170192,-0.822877\H,0,3.17409,-2.563597,-
 0.187705\H,0,0.929811,-1.982609,-1.114738\H,0,1.484083,-0.331996,-1.51
 1221\O,0,1.610227,0.770019,1.045426\H,0,-0.378541,1.873483,0.103501\C,

 Normal termination of Gaussian 16 at Fri Jun 10 11:13:02 2022.
