 Gaussian 16, Revision A.03,
 Gaussian 16:  ES64L-G16RevA.03 25-Dec-2016

 ----------------------------------------------------------------------
 # Opt=(TS, CalcFC, noeigentest, Z-matrix, MaxStep=10) geom=allcheckpoi
 nt guess=read Field=read NoSymm B3LYP/Def2TZVP freq=noraman pop=none
 ----------------------------------------------------------------------

 Structure from the checkpoint file:  "checkpoint.chk"
 -----------------
 ts_zmat_initalOpt
 -----------------
 Charge =  0 Multiplicity = 1

 SCF Done:  E(RB3LYP) =  -309.679565197     A.U. after   10 cycles
 SCF Done:  E(RB3LYP) =  -309.679577271     A.U. after   10 cycles
 Optimization completed.
    -- Stationary point found.
 Normal termination of Gaussian 16 at Fri Jun 10 03:26:10 2022.

 --------------------------------------------------------------------
 #N Geom=AllCheck Guess=TCheck SCRF=Check GenChk RB3LYP/def2TZVP Freq
 --------------------------------------------------------------------

 Structure from the checkpoint file:  "checkpoint.chk"
 -----------------
 ts_zmat_initalOpt
 -----------------
 Charge =  0 Multiplicity = 1

                          Input orientation:
 ---------------------------------------------------------------------
 Center     Atomic      Atomic             Coordinates (Angstroms)
 Number     Number       Type             X           Y           Z
 ---------------------------------------------------------------------
      1          6           0        0.000000    0.000000    0.000000
      2          6           0        0.000000    0.000000    1.405019
      3          6           0        1.216757    0.000000   -0.714860
      4          6           0       -1.035808   -0.071560   -0.978043
      5          1           0       -0.915404    0.102128    1.975355
      6          6           0        1.203771   -0.248017    2.033416
      7          6           0        2.415922   -0.362623   -0.078791
      8          6           0        0.909256    0.477762   -2.023208
      9          1           0       -1.026901   -0.905567   -1.661476
     10          1           0       -2.011008    0.392878   -0.835577
     11          6           0        2.389691   -0.470621    1.297154
     12          1           0        1.241810   -0.314718    3.113163
     13          1           0        3.343600   -0.468462   -0.628236
     14          1           0        0.448054    1.448602   -2.109754
     15          1           0        1.446556    0.145658   -2.910918
     16          1           0        3.302330   -0.691627    1.835667
 ---------------------------------------------------------------------

 SCF Done:  E(RB3LYP) =  -309.679577271     A.U. after    1 cycles

 Isotropic polarizability for W=    0.000000       98.38 Bohr**3.
 End of Minotr F.D. properties file   721 does not exist.

 ******    1 imaginary frequencies (negative Signs) ******

                      1                      2                      3
                      A                      A                      A
 Frequencies --   -626.7285               224.5899               225.4338
 Red. masses --      2.1697                 2.8671                 3.2414
 Frc consts  --      0.5021                 0.0852                 0.0971
 IR Inten    --     10.4524                 0.9719                 5.1247

                      4                      5                      6
                      A                      A                      A
 Frequencies --    397.2710               432.4850               524.0915
 Red. masses --      2.7427                 2.9959                 3.1030
 Frc consts  --      0.2550                 0.3302                 0.5022
 IR Inten    --      6.3517                 5.3174                 1.1398

                      7                      8                      9
                      A                      A                      A
 Frequencies --    577.5466               592.8168               653.5464
 Red. masses --      5.2091                 4.0019                 1.2834
 Frc consts  --      1.0237                 0.8286                 0.3230
 IR Inten    --      0.1127                 4.6528                18.3281

                     10                     11                     12
                      A                      A                      A
 Frequencies --    662.4891               746.6960               775.9212
 Red. masses --      1.0967                 3.1729                 1.2363
 Frc consts  --      0.2836                 1.0423                 0.4385
 IR Inten    --      2.8542                 5.2838                56.0357

                     13                     14                     15
                      A                      A                      A
 Frequencies --    815.4840               861.1662               875.9591
 Red. masses --      3.6850                 1.3014                 1.4788
 Frc consts  --      1.4438                 0.5687                 0.6685
 IR Inten    --      0.5247                11.9456                16.0347

                     16                     17                     18
                      A                      A                      A
 Frequencies --    884.6481               890.6897               955.8763
 Red. masses --      3.6165                 1.5875                 1.3541
 Frc consts  --      1.6676                 0.7420                 0.7290
 IR Inten    --      1.2111                40.7602                 5.2731

                     19                     20                     21
                      A                      A                      A
 Frequencies --    996.8237              1011.0231              1016.9315
 Red. masses --      1.3128                 1.4639                 2.1500
 Frc consts  --      0.7686                 0.8816                 1.3100
 IR Inten    --      0.2226                 2.4669                 0.0128

                     22                     23                     24
                      A                      A                      A
 Frequencies --   1043.5888              1146.7822              1184.6520
 Red. masses --      1.5472                 1.4898                 1.1063
 Frc consts  --      0.9928                 1.1544                 0.9148
 IR Inten    --     11.5352                 0.9170                 0.0065

                     25                     26                     27
                      A                      A                      A
 Frequencies --   1238.1610              1324.3514              1332.4402
 Red. masses --      2.3427                 1.6675                 2.7657
 Frc consts  --      2.1160                 1.7231                 2.8931
 IR Inten    --      8.3028                 0.3197                 1.7203

                     28                     29                     30
                      A                      A                      A
 Frequencies --   1372.7516              1472.3748              1491.5500
 Red. masses --      4.1431                 1.3873                 1.5371
 Frc consts  --      4.6000                 1.7720                 2.0148
 IR Inten    --      0.1753                 7.5569                 4.0127

                     31                     32                     33
                      A                      A                      A
 Frequencies --   1506.0109              1525.8685              1586.0222
 Red. masses --      2.0561                 2.1213                 5.1468
 Frc consts  --      2.7475                 2.9100                 7.6279
 IR Inten    --      1.7948                 4.6056                 7.8809

                     34                     35                     36
                      A                      A                      A
 Frequencies --   1632.1238              3090.6302              3090.9770
 Red. masses --      5.5856                 1.0650                 1.0668
 Frc consts  --      8.7665                 5.9939                 6.0051
 IR Inten    --      1.2772                34.9887                39.4611

                     37                     38                     39
                      A                      A                      A
 Frequencies --   3168.9308              3172.3694              3185.9733
 Red. masses --      1.0870                 1.0885                 1.0928
 Frc consts  --      6.4311                 6.4543                 6.5355
 IR Inten    --      7.9560                 0.0084                14.7274

                     40                     41                     42
                      A                      A                      A
 Frequencies --   3197.7485              3227.1224              3228.7956
 Red. masses --      1.0961                 1.1005                 1.1013
 Frc consts  --      6.6038                 6.7528                 6.7644
 IR Inten    --      4.8851                 6.5666                 1.3638

 - Thermochemistry -
 -------------------
 Temperature   298.150 Kelvin.  Pressure   1.00000 Atm.
 Atom     1 has atomic number  6 and mass  12.00000

 Molecular mass:   104.06260 amu.
 Principal axes and moments of inertia in atomic units:
                           1         2         3
     Eigenvalues --   471.34646 811.991401239.91719
           X            0.50071   0.86126   0.08673
           Y           -0.15141  -0.01151   0.98840
           Z            0.85227  -0.50804   0.12464
 This molecule is an asymmetric top.
 Rotational symmetry number  1.
 Warning -- assumption of classical behavior for rotation
           may cause significant error
 Rotational temperatures (Kelvin)      0.18376     0.10667     0.06985
 Rotational constants (GHZ):           3.82891     2.22261     1.45553
    1 imaginary frequencies ignored.
 Zero-point vibrational energy     342973.6 (Joules/Mol)
                                   81.97267 (Kcal/Mol)
 Warning -- explicit consideration of   7 degrees of freedom as
           vibrations may cause significant error
 Vibrational temperatures:    323.13   324.35   571.58   622.25   754.05
          (Kelvin)            830.96   852.93   940.31   953.17  1074.33
                             1116.38  1173.30  1239.03  1260.31  1272.81
                             1281.50  1375.29  1434.21  1454.64  1463.14
                             1501.49  1649.96  1704.45  1781.44  1905.45
                             1917.08  1975.08  2118.42  2146.01  2166.81
                             2195.38  2281.93  2348.26  4446.73  4447.23
                             4559.38  4564.33  4583.90  4600.85  4643.11
                             4645.52

 Zero-point correction=                           0.130632 (Hartree/Particle)
 Thermal correction to Energy=                    0.136684
 Thermal correction to Enthalpy=                  0.137629
 Thermal correction to Gibbs Free Energy=         0.100837
 Sum of electronic and zero-point Energies=           -309.548946
 Sum of electronic and thermal Energies=              -309.542893
 Sum of electronic and thermal Enthalpies=            -309.541949
 Sum of electronic and thermal Free Energies=         -309.578740

                     E (Thermal)             CV                S
                      KCal/Mol        Cal/Mol-Kelvin    Cal/Mol-Kelvin
 Total                   85.771             25.066             77.434
 Electronic               0.000              0.000              0.000
 Translational            0.889              2.981             39.837
 Rotational               0.889              2.981             27.653
 Vibrational             83.993             19.104              9.944
 Vibration     1          0.649              1.804              1.922
 Vibration     2          0.650              1.802              1.915
 Vibration     3          0.764              1.476              0.973
 Vibration     4          0.793              1.399              0.851
 Vibration     5          0.879              1.197              0.601
 Vibration     6          0.934              1.080              0.490
 Vibration     7          0.950              1.047              0.462

 Optimization completed.
    -- Stationary point found.
 Normal termination of Gaussian 16 at Fri Jun 10 03:32:26 2022.
