 Gaussian 16, Revision A.03,
 Gaussian 16:  ES64L-G16RevA.03 25-Dec-2016

 ------------------------------------------
 # Opt B3LYP/Def2TZVP freq=noraman pop=none
 ------------------------------------------

 -------------
 int_initalOpt
 -------------
 Symbolic Z-matrix:
 Charge =  0 Multiplicity = 1

 SCF Done:  E(RB3LYP) =  -822.532460343     A.U. after   20 cycles
 SCF Done:  E(RB3LYP) =  -822.532460376     A.U. after    7 cycles
 Optimization completed.
    -- Stationary point found.
 Normal termination of Gaussian 16 at Fri Jun 10 10:34:48 2022.

 --------------------------------------------------------------------
 #N Geom=AllCheck Guess=TCheck SCRF=Check GenChk RB3LYP/def2TZVP Freq
 --------------------------------------------------------------------

 Structure from the checkpoint file:  "checkpoint.chk"
 -------------
 int_initalOpt
 -------------
 Charge =  0 Multiplicity = 1

                         Standard orientation:
 ---------------------------------------------------------------------
 Center     Atomic      Atomic             Coordinates (Angstroms)
 Number     Number       Type             X           Y           Z
 ---------------------------------------------------------------------
      1          6           0       -4.028367   -0.112754    0.931690
      2          6           0       -3.119545   -0.838777    0.291605
      3          1           0       -5.084941   -0.219966    0.723207
      4          1           0       -3.746957    0.615753    1.682678
      5          6           0       -1.652445   -0.725984    0.514525
      6          1           0       -3.438506   -1.549218   -0.465505
      7         16           0       -0.850157    0.211023   -0.886591
      8          1           0       -1.159694   -1.699852    0.543481
      9          1           0       -1.407305   -0.160639    1.414371
     10          8           0       -1.232084    1.637030   -0.708004
     11          6           0        0.851312    0.028574   -0.292702
     12          6           0        1.458502    1.107596    0.334698
     13          1           0        0.893734    2.020865    0.472513
     14          6           0        2.779237    0.992588    0.755874
     15          1           0        3.260771    1.829058    1.246649
     16          6           0        3.481710   -0.188578    0.543086
     17          1           0        4.510825   -0.272619    0.868448
     18          6           0        2.868092   -1.259379   -0.101121
     19          1           0        3.418543   -2.174551   -0.278961
     20          6           0        1.550620   -1.151022   -0.528694
     21          1           0        1.078022   -1.975027   -1.051169
 ---------------------------------------------------------------------

 SCF Done:  E(RB3LYP) =  -822.532460376     A.U. after    1 cycles

 Isotropic polarizability for W=    0.000000      130.71 Bohr**3.
 End of Minotr F.D. properties file   721 does not exist.

                      1                      2                      3
                      A                      A                      A
 Frequencies --     40.8376                52.9160                71.6895
 Red. masses --      4.3378                 3.0597                 3.2172
 Frc consts  --      0.0043                 0.0050                 0.0097
 IR Inten    --      0.7127                 0.1934                 2.3921

                      4                      5                      6
                      A                      A                      A
 Frequencies --     94.4016               189.0975               214.1843
 Red. masses --      3.3968                 5.6823                 3.6177
 Frc consts  --      0.0178                 0.1197                 0.0978
 IR Inten    --      0.3120                 4.9251                 1.5545

                      7                      8                      9
                      A                      A                      A
 Frequencies --    258.6904               311.1607               367.4336
 Red. masses --      3.5183                 5.4038                 4.7301
 Frc consts  --      0.1387                 0.3083                 0.3763
 IR Inten    --      0.2159                 2.7189                 4.6385

                     10                     11                     12
                      A                      A                      A
 Frequencies --    411.4468               415.7073               472.6580
 Red. masses --      2.8508                 2.1827                 4.3713
 Frc consts  --      0.2843                 0.2222                 0.5754
 IR Inten    --      0.5822                 4.2654                 9.5579

                     13                     14                     15
                      A                      A                      A
 Frequencies --    511.2785               544.0094               629.6617
 Red. masses --      4.9231                 2.5115                 6.4363
 Frc consts  --      0.7582                 0.4379                 1.5035
 IR Inten    --     17.0758                33.8232                 0.0093

                     16                     17                     18
                      A                      A                      A
 Frequencies --    698.5609               709.7597               731.3363
 Red. masses --      5.7891                 2.2618                 1.9510
 Frc consts  --      1.6644                 0.6713                 0.6148
 IR Inten    --      0.8278                29.4367                 8.6372

                     19                     20                     21
                      A                      A                      A
 Frequencies --    769.6611               865.1425               875.7153
 Red. masses --      1.7143                 1.2460                 1.5460
 Frc consts  --      0.5983                 0.5495                 0.6985
 IR Inten    --     37.4418                 0.1621                 9.3943

                     22                     23                     24
                      A                      A                      A
 Frequencies --    938.5369               953.1227               965.5125
 Red. masses --      1.4147                 2.1046                 1.3313
 Frc consts  --      0.7342                 1.1265                 0.7312
 IR Inten    --      0.4661                 1.7118                38.7095

                     25                     26                     27
                      A                      A                      A
 Frequencies --    976.3845               997.9664              1018.0397
 Red. masses --      1.3318                 1.2878                 6.0843
 Frc consts  --      0.7480                 0.7557                 3.7153
 IR Inten    --      0.1667                 0.1921                 2.0842

                     28                     29                     30
                      A                      A                      A
 Frequencies --   1022.6310              1045.1066              1077.0661
 Red. masses --      1.1181                 2.7716                 1.9040
 Frc consts  --      0.6889                 1.7836                 1.3014
 IR Inten    --     12.6465                 5.3103                33.1737

                     31                     32                     33
                      A                      A                      A
 Frequencies --   1081.5886              1099.0314              1122.7357
 Red. masses --      2.0718                 1.7671                 4.6649
 Frc consts  --      1.4280                 1.2576                 3.4646
 IR Inten    --      7.2675                 9.0185                74.7986

                     34                     35                     36
                      A                      A                      A
 Frequencies --   1184.5619              1197.8167              1214.0356
 Red. masses --      1.1337                 1.1607                 1.3903
 Frc consts  --      0.9373                 0.9812                 1.2073
 IR Inten    --      0.1722                 1.2737                 1.0628

                     37                     38                     39
                      A                      A                      A
 Frequencies --   1228.1754              1327.0662              1334.8388
 Red. masses --      1.3019                 3.1287                 1.2531
 Frc consts  --      1.1570                 3.2464                 1.3155
 IR Inten    --      4.9778                 0.2746                 1.9243

                     40                     41                     42
                      A                      A                      A
 Frequencies --   1349.4263              1437.7954              1467.4812
 Red. masses --      1.7404                 1.1116                 1.1891
 Frc consts  --      1.8672                 1.3540                 1.5088
 IR Inten    --      3.0186                 4.4195                 6.0256

                     43                     44                     45
                      A                      A                      A
 Frequencies --   1478.8809              1513.9915              1623.9812
 Red. masses --      2.1101                 2.0233                 5.5858
 Frc consts  --      2.7190                 2.7325                 8.6796
 IR Inten    --     10.3176                10.0513                 1.3013

                     46                     47                     48
                      A                      A                      A
 Frequencies --   1626.4339              1702.6034              3047.3043
 Red. masses --      5.2635                 4.3727                 1.0568
 Frc consts  --      8.2034                 7.4684                 5.7819
 IR Inten    --      3.3997                 7.7126                 8.1543

                     49                     50                     51
                      A                      A                      A
 Frequencies --   3110.0884              3139.1187              3145.9401
 Red. masses --      1.1061                 1.0689                 1.0815
 Frc consts  --      6.3034                 6.2059                 6.3064
 IR Inten    --      1.9096                10.4214                 5.5783

                     52                     53                     54
                      A                      A                      A
 Frequencies --   3160.9258              3172.0181              3181.7858
 Red. masses --      1.0871                 1.0868                 1.0906
 Frc consts  --      6.3996                 6.4430                 6.5050
 IR Inten    --      2.1905                 0.4864                13.0642

                     55                     56                     57
                      A                      A                      A
 Frequencies --   3191.5865              3196.9004              3226.2160
 Red. masses --      1.0927                 1.0968                 1.1162
 Frc consts  --      6.5581                 6.6045                 6.8452
 IR Inten    --      3.7919                20.4784                 9.8213

 - Thermochemistry -
 -------------------
 Temperature   298.150 Kelvin.  Pressure   1.00000 Atm.
 Atom     1 has atomic number  6 and mass  12.00000

 Molecular mass:   166.04524 amu.
 Principal axes and moments of inertia in atomic units:
                           1         2         3
     Eigenvalues --   773.339063446.319963698.44169
           X            0.99997   0.00493  -0.00535
           Y           -0.00446   0.99642   0.08446
           Z            0.00574  -0.08443   0.99641
 This molecule is an asymmetric top.
 Rotational symmetry number  1.
 Warning -- assumption of classical behavior for rotation
           may cause significant error
 Rotational temperatures (Kelvin)      0.11200     0.02513     0.02342
 Rotational constants (GHZ):           2.33370     0.52367     0.48797
 Zero-point vibrational energy     435393.1 (Joules/Mol)
                                  104.06145 (Kcal/Mol)
 Warning -- explicit consideration of  14 degrees of freedom as
           vibrations may cause significant error
 Vibrational temperatures:     58.76    76.13   103.15   135.82   272.07
          (Kelvin)            308.16   372.20   447.69   528.66   591.98
                              598.11   680.05   735.62   782.71   905.94
                             1005.07  1021.19  1052.23  1107.37  1244.75
                             1259.96  1350.35  1371.33  1389.16  1404.80
                             1435.85  1464.73  1471.34  1503.68  1549.66
                             1556.16  1581.26  1615.37  1704.32  1723.39
                             1746.73  1767.07  1909.35  1920.54  1941.52
                             2068.67  2111.38  2127.78  2178.30  2336.55
                             2340.08  2449.67  4384.39  4474.72  4516.49
                             4526.31  4547.87  4563.83  4577.88  4591.98
                             4599.63  4641.81

 Zero-point correction=                           0.165832 (Hartree/Particle)
 Thermal correction to Energy=                    0.176682
 Thermal correction to Enthalpy=                  0.177626
 Thermal correction to Gibbs Free Energy=         0.127847
 Sum of electronic and zero-point Energies=           -822.366628
 Sum of electronic and thermal Energies=              -822.355778
 Sum of electronic and thermal Enthalpies=            -822.354834
 Sum of electronic and thermal Free Energies=         -822.404613

                     E (Thermal)             CV                S
                      KCal/Mol        Cal/Mol-Kelvin    Cal/Mol-Kelvin
 Total                  110.870             40.111            104.769
 Electronic               0.000              0.000              0.000
 Translational            0.889              2.981             41.230
 Rotational               0.889              2.981             30.667
 Vibrational            109.092             34.150             32.872
 Vibration     1          0.594              1.981              5.218
 Vibration     2          0.596              1.976              4.705
 Vibration     3          0.598              1.968              4.106
 Vibration     4          0.603              1.953              3.567
 Vibration     5          0.633              1.855              2.237
 Vibration     6          0.644              1.819              2.008
 Vibration     7          0.668              1.748              1.671
 Vibration     8          0.700              1.652              1.356
 Vibration     9          0.740              1.539              1.090
 Vibration    10          0.775              1.445              0.922
 Vibration    11          0.779              1.436              0.907
 Vibration    12          0.830              1.311              0.730
 Vibration    13          0.866              1.225              0.631
 Vibration    14          0.899              1.153              0.557

 Optimization completed.
    -- Stationary point found.
 Normal termination of Gaussian 16 at Fri Jun 10 10:50:34 2022.
