 Gaussian 16, Revision A.03,
 Gaussian 16:  ES64L-G16RevA.03 25-Dec-2016

 ----------------------------------------------------------------------
 # Opt=(Z-matrix, MaxStep=10) B3LYP/Def2TZVP geom=allcheckpoint guess=r
 ead Field=read NoSymm freq=noraman pop=none
 ----------------------------------------------------------------------

 Structure from the checkpoint file:  "checkpoint.chk"
 ------------------
 int_zmat_initalOpt
 ------------------
 Charge =  0 Multiplicity = 1

 SCF Done:  E(RB3LYP) =  -195.368839563     A.U. after    9 cycles
 SCF Done:  E(RB3LYP) =  -195.368845474     A.U. after    8 cycles
 SCF Done:  E(RB3LYP) =  -195.368851096     A.U. after    9 cycles
 SCF Done:  E(RB3LYP) =  -195.368851824     A.U. after    7 cycles
 SCF Done:  E(RB3LYP) =  -195.368851927     A.U. after    7 cycles
 Optimization completed.
    -- Stationary point found.
 Normal termination of Gaussian 16 at Fri Jun 10 11:16:41 2022.

 --------------------------------------------------------------------
 #N Geom=AllCheck Guess=TCheck SCRF=Check GenChk RB3LYP/def2TZVP Freq
 --------------------------------------------------------------------

 Structure from the checkpoint file:  "checkpoint.chk"
 ------------------
 int_zmat_initalOpt
 ------------------
 Charge =  0 Multiplicity = 1

                          Input orientation:
 ---------------------------------------------------------------------
 Center     Atomic      Atomic             Coordinates (Angstroms)
 Number     Number       Type             X           Y           Z
 ---------------------------------------------------------------------
      1          6           0        0.000000    0.000000    0.000000
      2          6           0        0.000000    0.000000    1.480379
      3          6           0        1.310215    0.000000   -0.766605
      4          6           0        0.400500   -1.193918   -0.817208
      5          1           0       -0.767870    0.631217   -0.433828
      6          1           0        2.218423   -0.085700   -0.184382
      7          1           0        1.388017    0.631924   -1.640892
      8          1           0        0.717055   -2.088940   -0.299151
      9          1           0       -0.146751   -1.382022   -1.730669
     10          6           0        0.128470   -1.052412    2.283048
     11          1           0       -0.113404    0.982966    1.932726
     12          1           0        0.218556   -2.061758    1.899970
     13          1           0        0.131789   -0.936779    3.359917
 ---------------------------------------------------------------------

 SCF Done:  E(RB3LYP) =  -195.368851927     A.U. after    1 cycles

 Isotropic polarizability for W=    0.000000       58.37 Bohr**3.
 End of Minotr F.D. properties file   721 does not exist.

                      1                      2                      3
                      A                      A                      A
 Frequencies --     86.1379               269.4680               304.0290
 Red. masses --      2.0158                 2.6476                 1.8155
 Frc consts  --      0.0088                 0.1133                 0.0989
 IR Inten    --      0.6017                 0.5165                 0.9001

                      4                      5                      6
                      A                      A                      A
 Frequencies --    536.2939               666.0923               759.6517
 Red. masses --      2.0799                 1.6127                 1.7103
 Frc consts  --      0.3525                 0.4216                 0.5815
 IR Inten    --      0.4289                13.7410                 1.9134

                      7                      8                      9
                      A                      A                      A
 Frequencies --    813.4057               838.6430               907.7297
 Red. masses --      1.2708                 1.4734                 2.2346
 Frc consts  --      0.4954                 0.6106                 1.0848
 IR Inten    --      0.3924                 8.6316                13.6432

                     10                     11                     12
                      A                      A                      A
 Frequencies --    923.1869               947.1939              1027.2507
 Red. masses --      1.4442                 2.4933                 1.1144
 Frc consts  --      0.7252                 1.3179                 0.6929
 IR Inten    --     35.0996                14.8142                17.4279

                     13                     14                     15
                      A                      A                      A
 Frequencies --   1053.1542              1083.8804              1095.4353
 Red. masses --      1.2008                 1.3233                 1.5683
 Frc consts  --      0.7847                 0.9160                 1.1088
 IR Inten    --      6.0931                 4.2469                 9.2330

                     16                     17                     18
                      A                      A                      A
 Frequencies --   1122.4469              1135.8871              1201.8078
 Red. masses --      1.4926                 1.2013                 1.3871
 Frc consts  --      1.1079                 0.9132                 1.1804
 IR Inten    --      1.6141                 0.7228                 2.6138

                     19                     20                     21
                      A                      A                      A
 Frequencies --   1228.3287              1335.5892              1407.1382
 Red. masses --      1.8980                 1.2633                 1.5015
 Frc consts  --      1.6873                 1.3277                 1.7517
 IR Inten    --      2.3075                 0.4032                 0.0073

                     22                     23                     24
                      A                      A                      A
 Frequencies --   1456.6298              1473.8667              1508.9794
 Red. masses --      1.2896                 1.0960                 1.3313
 Frc consts  --      1.6121                 1.4028                 1.7861
 IR Inten    --      3.4614                 3.9151                 3.0547

                     25                     26                     27
                      A                      A                      A
 Frequencies --   1697.6440              3114.8197              3130.1557
 Red. masses --      4.4756                 1.0827                 1.0522
 Frc consts  --      7.5997                 6.1892                 6.0740
 IR Inten    --     33.8708                17.7658                17.6431

                     28                     29                     30
                      A                      A                      A
 Frequencies --   3134.9162              3138.6980              3142.4464
 Red. masses --      1.0655                 1.0657                 1.0755
 Frc consts  --      6.1693                 6.1854                 6.2572
 IR Inten    --     10.3548                15.3330                 2.4784

                     31                     32                     33
                      A                      A                      A
 Frequencies --   3208.4292              3211.8731              3223.4508
 Red. masses --      1.1189                 1.1155                 1.1161
 Frc consts  --      6.7859                 6.7804                 6.8328
 IR Inten    --      1.2525                22.9772                11.6949

 - Thermochemistry -
 -------------------
 Temperature   298.150 Kelvin.  Pressure   1.00000 Atm.
 Atom     1 has atomic number  6 and mass  12.00000

 Molecular mass:    68.06260 amu.
 Principal axes and moments of inertia in atomic units:
                           1         2         3
     Eigenvalues --   155.41378 492.74201 542.37791
           X           -0.24046   0.04112   0.96979
           Y           -0.08127   0.99474  -0.06233
           Z            0.96725   0.09380   0.23585
 This molecule is an asymmetric top.
 Rotational symmetry number  1.
 Rotational temperatures (Kelvin)      0.55731     0.17578     0.15969
 Rotational constants (GHZ):          11.61249     3.66265     3.32746
 Zero-point vibrational energy     300170.9 (Joules/Mol)
                                   71.74257 (Kcal/Mol)
 Warning -- explicit consideration of   4 degrees of freedom as
           vibrations may cause significant error
 Vibrational temperatures:    123.93   387.70   437.43   771.61   958.36
          (Kelvin)           1092.97  1170.31  1206.62  1306.02  1328.26
                             1362.80  1477.98  1515.25  1559.46  1576.09
                             1614.95  1634.29  1729.13  1767.29  1921.61
                             2024.56  2095.77  2120.57  2171.08  2442.53
                             4481.53  4503.60  4510.45  4515.89  4521.28
                             4616.21  4621.17  4637.83

 Zero-point correction=                           0.114329 (Hartree/Particle)
 Thermal correction to Energy=                    0.119730
 Thermal correction to Enthalpy=                  0.120675
 Thermal correction to Gibbs Free Energy=         0.085978
 Sum of electronic and zero-point Energies=           -195.254523
 Sum of electronic and thermal Energies=              -195.249121
 Sum of electronic and thermal Enthalpies=            -195.248177
 Sum of electronic and thermal Free Energies=         -195.282874

                     E (Thermal)             CV                S
                      KCal/Mol        Cal/Mol-Kelvin    Cal/Mol-Kelvin
 Total                   75.132             19.382             73.025
 Electronic               0.000              0.000              0.000
 Translational            0.889              2.981             38.571
 Rotational               0.889              2.981             25.233
 Vibrational             73.355             13.420              9.221
 Vibration     1          0.601              1.959              3.746
 Vibration     2          0.674              1.729              1.600
 Vibration     3          0.695              1.666              1.395
 Vibration     4          0.891              1.170              0.573

 Optimization completed.
    -- Stationary point found.
 Normal termination of Gaussian 16 at Fri Jun 10 11:18:53 2022.
