 Gaussian 16, Revision A.03,
 Gaussian 16:  ES64L-G16RevA.03 25-Dec-2016

 ----------------------------------------------------------------------
 # Opt=(TS, CalcFC, noeigentest, Z-matrix, MaxStep=10) geom=allcheckpoi
 nt guess=read Field=read NoSymm B3LYP/Def2TZVP freq=noraman pop=none
 ----------------------------------------------------------------------

 Structure from the checkpoint file:  "checkpoint.chk"
 -----------------
 ts_zmat_initalOpt
 -----------------
 Charge =  0 Multiplicity = 1

 SCF Done:  E(RB3LYP) =  -195.280071210     A.U. after   10 cycles
 SCF Done:  E(RB3LYP) =  -195.280079605     A.U. after   10 cycles
 Optimization completed.
    -- Stationary point found.
 Normal termination of Gaussian 16 at Fri Jun 10 11:42:52 2022.

 --------------------------------------------------------------------
 #N Geom=AllCheck Guess=TCheck SCRF=Check GenChk RB3LYP/def2TZVP Freq
 --------------------------------------------------------------------

 Structure from the checkpoint file:  "checkpoint.chk"
 -----------------
 ts_zmat_initalOpt
 -----------------
 Charge =  0 Multiplicity = 1

                          Input orientation:
 ---------------------------------------------------------------------
 Center     Atomic      Atomic             Coordinates (Angstroms)
 Number     Number       Type             X           Y           Z
 ---------------------------------------------------------------------
      1          6           0        0.000000    0.000000    0.000000
      2          6           0        0.000000    0.000000    1.386595
      3          6           0        1.252219    0.000000   -0.838954
      4          1           0       -0.950240    0.023660   -0.525143
      5          6           0        2.045470   -1.074137   -0.259331
      6          1           0        1.749183    0.972752   -0.842218
      7          1           0        0.959619   -0.225414   -1.870154
      8          6           0        0.936948   -0.536060    2.236255
      9          1           0       -0.844054    0.528521    1.837034
     10          1           0        2.976429   -0.901065    0.258574
     11          1           0        1.693219   -2.091727   -0.347555
     12          1           0        1.457724   -1.445049    1.987337
     13          1           0        1.042715   -0.167826    3.252350
 ---------------------------------------------------------------------

 SCF Done:  E(RB3LYP) =  -195.280079605     A.U. after    1 cycles

 Isotropic polarizability for W=    0.000000       74.78 Bohr**3.
 End of Minotr F.D. properties file   721 does not exist.

 ******    1 imaginary frequencies (negative Signs) ******

                      1                      2                      3
                      A                      A                      A
 Frequencies --   -420.2527               218.6756               261.3924
 Red. masses --      1.9512                 2.2411                 2.2646
 Frc consts  --      0.2030                 0.0631                 0.0912
 IR Inten    --      0.2633                 0.3623                 0.9983

                      4                      5                      6
                      A                      A                      A
 Frequencies --    370.4517               543.2220               586.7226
 Red. masses --      2.2321                 1.2731                 1.3160
 Frc consts  --      0.1805                 0.2213                 0.2669
 IR Inten    --      6.9993                 8.3142                 3.2495

                      7                      8                      9
                      A                      A                      A
 Frequencies --    648.0275               696.6732               744.3437
 Red. masses --      1.4824                 1.3536                 1.2678
 Frc consts  --      0.3668                 0.3871                 0.4139
 IR Inten    --     17.5223                50.0183                47.4238

                     10                     11                     12
                      A                      A                      A
 Frequencies --    772.4882               834.4093               895.0323
 Red. masses --      1.3780                 1.5517                 1.4897
 Frc consts  --      0.4845                 0.6365                 0.7031
 IR Inten    --      7.0555                10.8818                 5.0703

                     13                     14                     15
                      A                      A                      A
 Frequencies --    931.6592              1030.8655              1062.4657
 Red. masses --      1.8150                 1.5588                 1.6744
 Frc consts  --      0.9282                 0.9760                 1.1136
 IR Inten    --      4.0640                 0.2686                15.9123

                     16                     17                     18
                      A                      A                      A
 Frequencies --   1132.3259              1155.2201              1221.2176
 Red. masses --      2.1662                 1.9969                 1.2297
 Frc consts  --      1.6364                 1.5701                 1.0805
 IR Inten    --     20.1549                 0.2952                 6.9749

                     19                     20                     21
                      A                      A                      A
 Frequencies --   1266.6411              1305.8972              1400.1345
 Red. masses --      1.2548                 1.3023                 1.3430
 Frc consts  --      1.1861                 1.3086                 1.5512
 IR Inten    --     19.8576                 6.0963                 2.1105

                     22                     23                     24
                      A                      A                      A
 Frequencies --   1422.7651              1481.1954              1497.2154
 Red. masses --      1.1117                 1.2694                 1.4451
 Frc consts  --      1.3259                 1.6408                 1.9086
 IR Inten    --     13.1231                 7.4184                 1.9110

                     25                     26                     27
                      A                      A                      A
 Frequencies --   1588.5493              3018.0698              3059.5405
 Red. masses --      4.0835                 1.0582                 1.0834
 Frc consts  --      6.0713                 5.6789                 5.9750
 IR Inten    --     24.6160                 8.9238                16.8642

                     28                     29                     30
                      A                      A                      A
 Frequencies --   3063.7281              3122.4843              3147.5597
 Red. masses --      1.1012                 1.0661                 1.0885
 Frc consts  --      6.0903                 6.1239                 6.3534
 IR Inten    --     13.2895                30.3099                 4.1101

                     31                     32                     33
                      A                      A                      A
 Frequencies --   3163.4489              3253.0556              3265.2824
 Red. masses --      1.0513                 1.1020                 1.1186
 Frc consts  --      6.1989                 6.8710                 7.0272
 IR Inten    --      5.5555                10.9095                 3.9860

 - Thermochemistry -
 -------------------
 Temperature   298.150 Kelvin.  Pressure   1.00000 Atm.
 Atom     1 has atomic number  6 and mass  12.00000

 Molecular mass:    68.06260 amu.
 Principal axes and moments of inertia in atomic units:
                           1         2         3
     Eigenvalues --   211.92289 403.73683 567.06575
           X           -0.36677   0.79615   0.48127
           Y            0.06281  -0.49496   0.86665
           Z            0.92819   0.34809   0.13153
 This molecule is an asymmetric top.
 Rotational symmetry number  1.
 Rotational temperatures (Kelvin)      0.40870     0.21453     0.15274
 Rotational constants (GHZ):           8.51603     4.47009     3.18260
    1 imaginary frequencies ignored.
 Zero-point vibrational energy     288065.3 (Joules/Mol)
                                   68.84926 (Kcal/Mol)
 Warning -- explicit consideration of   5 degrees of freedom as
           vibrations may cause significant error
 Vibrational temperatures:    314.63   376.09   533.00   781.58   844.16
          (Kelvin)            932.37  1002.36  1070.94  1111.44  1200.53
                             1287.75  1340.45  1483.19  1528.65  1629.16
                             1662.10  1757.06  1822.41  1878.89  2014.48
                             2047.04  2131.11  2154.16  2285.57  4342.33
                             4402.00  4408.02  4492.56  4528.64  4551.50
                             4680.42  4698.01

 Zero-point correction=                           0.109718 (Hartree/Particle)
 Thermal correction to Energy=                    0.115029
 Thermal correction to Enthalpy=                  0.115973
 Thermal correction to Gibbs Free Energy=         0.081891
 Sum of electronic and zero-point Energies=           -195.170361
 Sum of electronic and thermal Energies=              -195.165051
 Sum of electronic and thermal Enthalpies=            -195.164106
 Sum of electronic and thermal Free Energies=         -195.198189

                     E (Thermal)             CV                S
                      KCal/Mol        Cal/Mol-Kelvin    Cal/Mol-Kelvin
 Total                   72.182             20.102             71.732
 Electronic               0.000              0.000              0.000
 Translational            0.889              2.981             38.571
 Rotational               0.889              2.981             25.387
 Vibrational             70.404             14.140              7.774
 Vibration     1          0.646              1.813              1.970
 Vibration     2          0.669              1.743              1.652
 Vibration     3          0.742              1.533              1.078
 Vibration     4          0.898              1.155              0.558
 Vibration     5          0.944              1.060              0.473

 Optimization completed.
    -- Stationary point found.
 Normal termination of Gaussian 16 at Fri Jun 10 11:45:15 2022.
