 Gaussian 16, Revision A.03,
 Gaussian 16:  ES64L-G16RevA.03 25-Dec-2016

 ----------------------------------------------------------------------
 # Opt=(TS, CalcFC, noeigentest, Z-matrix, MaxStep=10) geom=allcheckpoi
 nt guess=read Field=read NoSymm B3LYP/Def2TZVP freq=noraman pop=none
 ----------------------------------------------------------------------

 Structure from the checkpoint file:  "checkpoint.chk"
 -----------------
 ts_zmat_initalOpt
 -----------------
 Charge =  0 Multiplicity = 1

 SCF Done:  E(RB3LYP) =  -312.082801104     A.U. after   10 cycles
 SCF Done:  E(RB3LYP) =  -312.082809471     A.U. after   10 cycles
 SCF Done:  E(RB3LYP) =  -312.082809536     A.U. after    7 cycles
 Optimization completed.
    -- Stationary point found.
 Normal termination of Gaussian 16 at Sat Jun 11 00:15:31 2022.

 --------------------------------------------------------------------
 #N Geom=AllCheck Guess=TCheck SCRF=Check GenChk RB3LYP/def2TZVP Freq
 --------------------------------------------------------------------

 Structure from the checkpoint file:  "checkpoint.chk"
 -----------------
 ts_zmat_initalOpt
 -----------------
 Charge =  0 Multiplicity = 1

                          Input orientation:
 ---------------------------------------------------------------------
 Center     Atomic      Atomic             Coordinates (Angstroms)
 Number     Number       Type             X           Y           Z
 ---------------------------------------------------------------------
      1          6           0        0.000000    0.000000    0.000000
      2          6           0        0.000000    0.000000    1.391567
      3          6           0        1.263801    0.000000   -0.852110
      4          1           0       -0.911460    0.324022   -0.489814
      5          6           0        1.410051   -1.488581   -1.216657
      6          6           0        1.065944   -0.379461    2.174989
      7          1           0       -0.969765    0.087679    1.875972
      8          1           0        1.135074    0.633814   -1.729570
      9          1           0        2.123233    0.392318   -0.307655
     10          6           0        0.173188   -2.101969   -0.570955
     11          1           0        2.079300   -0.318710    1.807242
     12          1           0        0.964675   -0.414863    3.251493
     13          1           0        1.416735   -1.659908   -2.294034
     14          1           0        2.328301   -1.927695   -0.824925
     15          6           0        0.187866   -2.804356    0.630625
     16          1           0       -0.687075   -2.244238   -1.216189
     17          6           0        1.195462   -2.739108    1.569286
     18          1           0       -0.762387   -3.228340    0.950616
     19          1           0        2.209254   -2.496751    1.289190
     20          1           0        1.084974   -3.243534    2.520530
 ---------------------------------------------------------------------

 SCF Done:  E(RB3LYP) =  -312.082809536     A.U. after    1 cycles

 Isotropic polarizability for W=    0.000000      102.36 Bohr**3.
 End of Minotr F.D. properties file   721 does not exist.

 ******    1 imaginary frequencies (negative Signs) ******

                      1                      2                      3
                      A                      A                      A
 Frequencies --   -426.9590                57.8078               257.7842
 Red. masses --      8.1955                 2.0940                 2.6604
 Frc consts  --      0.8802                 0.0041                 0.1042
 IR Inten    --      1.5921                 0.0146                 0.4022

                      4                      5                      6
                      A                      A                      A
 Frequencies --    259.7492               282.5046               302.5249
 Red. masses --      4.0393                 2.9749                 3.3915
 Frc consts  --      0.1606                 0.1399                 0.1829
 IR Inten    --      0.8627                 0.5929                 0.4134

                      7                      8                      9
                      A                      A                      A
 Frequencies --    369.3459               422.8980               530.9274
 Red. masses --      2.3023                 2.2525                 2.2772
 Frc consts  --      0.1850                 0.2373                 0.3782
 IR Inten    --      2.3276                 2.0236                 2.4060

                     10                     11                     12
                      A                      A                      A
 Frequencies --    573.5101               657.1615               682.7724
 Red. masses --      2.0325                 2.6162                 1.3512
 Frc consts  --      0.3939                 0.6657                 0.3711
 IR Inten    --      0.6233                 3.8552                 0.1996

                     13                     14                     15
                      A                      A                      A
 Frequencies --    715.0472               760.5426               785.1139
 Red. masses --      1.3280                 1.0958                 1.3350
 Frc consts  --      0.4000                 0.3734                 0.4849
 IR Inten    --     24.0120                 7.4927                 6.5663

                     16                     17                     18
                      A                      A                      A
 Frequencies --    860.8964               899.6942               912.9405
 Red. masses --      1.4900                 1.2026                 2.2900
 Frc consts  --      0.6506                 0.5735                 1.1245
 IR Inten    --     12.6393                 2.3630                 2.5534

                     19                     20                     21
                      A                      A                      A
 Frequencies --    941.5817               956.8810               989.5618
 Red. masses --      1.5651                 1.4402                 1.4796
 Frc consts  --      0.8175                 0.7770                 0.8536
 IR Inten    --      1.0273                 7.8872                 6.2264

                     22                     23                     24
                      A                      A                      A
 Frequencies --    991.4654              1008.4889              1018.6185
 Red. masses --      1.5011                 1.7288                 1.3070
 Frc consts  --      0.8694                 1.0359                 0.7990
 IR Inten    --      1.0520                 2.1432                19.3054

                     25                     26                     27
                      A                      A                      A
 Frequencies --   1039.5415              1086.5684              1146.0857
 Red. masses --      1.4424                 1.9357                 1.2919
 Frc consts  --      0.9184                 1.3465                 0.9998
 IR Inten    --      0.6927                 5.3034                 0.3620

                     28                     29                     30
                      A                      A                      A
 Frequencies --   1180.1507              1221.8968              1264.4213
 Red. masses --      1.5966                 1.5135                 1.1369
 Frc consts  --      1.3101                 1.3314                 1.0709
 IR Inten    --      0.5822                 0.5255                 0.0951

                     31                     32                     33
                      A                      A                      A
 Frequencies --   1286.6656              1298.6340              1299.5537
 Red. masses --      1.4679                 1.3427                 1.4142
 Frc consts  --      1.4318                 1.3342                 1.4072
 IR Inten    --      0.4375                 1.2254                 1.1768

                     34                     35                     36
                      A                      A                      A
 Frequencies --   1328.1718              1427.6509              1430.4099
 Red. masses --      1.3981                 1.3409                 1.3375
 Frc consts  --      1.4531                 1.6102                 1.6124
 IR Inten    --      3.0922                 1.6053                 2.4148

                     37                     38                     39
                      A                      A                      A
 Frequencies --   1488.4758              1494.8104              1505.1790
 Red. masses --      1.1882                 2.3150                 1.4974
 Frc consts  --      1.5510                 3.0477                 1.9988
 IR Inten    --      3.2966                 3.6838                 0.3559

                     40                     41                     42
                      A                      A                      A
 Frequencies --   1510.8467              1558.6851              1610.1939
 Red. masses --      1.1276                 1.8960                 3.7646
 Frc consts  --      1.5166                 2.7139                 5.7507
 IR Inten    --     16.4975                 2.7087                 6.2246

                     43                     44                     45
                      A                      A                      A
 Frequencies --   3052.0976              3062.5537              3081.5149
 Red. masses --      1.0590                 1.0604                 1.1048
 Frc consts  --      5.8122                 5.8596                 6.1813
 IR Inten    --     29.2012                31.1254                 1.8321

                     46                     47                     48
                      A                      A                      A
 Frequencies --   3094.2596              3103.4029              3110.8788
 Red. masses --      1.0850                 1.1038                 1.0867
 Frc consts  --      6.1205                 6.2633                 6.1963
 IR Inten    --     30.9026                12.2814                29.1050

                     49                     50                     51
                      A                      A                      A
 Frequencies --   3146.5907              3154.9414              3155.7568
 Red. masses --      1.0868                 1.0636                 1.0823
 Frc consts  --      6.3396                 6.2376                 6.3506
 IR Inten    --     17.7389                 9.3024                42.9667

                     52                     53                     54
                      A                      A                      A
 Frequencies --   3162.1197              3234.3054              3246.1771
 Red. masses --      1.0660                 1.1154                 1.1128
 Frc consts  --      6.2800                 6.8748                 6.9088
 IR Inten    --      8.8588                 1.9564                17.2488

 - Thermochemistry -
 -------------------
 Temperature   298.150 Kelvin.  Pressure   1.00000 Atm.
 Atom     1 has atomic number  6 and mass  12.00000

 Molecular mass:   108.09390 amu.
 Principal axes and moments of inertia in atomic units:
                           1         2         3
     Eigenvalues --   723.46536 782.753831140.89762
           X           -0.05417  -0.07064   0.99603
           Y           -0.34874   0.93602   0.04742
           Z            0.93565   0.34479   0.07534
 This molecule is an asymmetric top.
 Rotational symmetry number  1.
 Warning -- assumption of classical behavior for rotation
           may cause significant error
 Rotational temperatures (Kelvin)      0.11972     0.11065     0.07592
 Rotational constants (GHZ):           2.49458     2.30563     1.58186
    1 imaginary frequencies ignored.
 Zero-point vibrational energy     460684.0 (Joules/Mol)
                                  110.10613 (Kcal/Mol)
 Warning -- explicit consideration of   9 degrees of freedom as
           vibrations may cause significant error
 Vibrational temperatures:     83.17   370.89   373.72   406.46   435.27
          (Kelvin)            531.41   608.46   763.89   825.15   945.51
                              982.36  1028.79  1094.25  1129.60  1238.64
                             1294.46  1313.52  1354.73  1376.74  1423.76
                             1426.50  1450.99  1465.56  1495.67  1563.33
                             1648.96  1697.97  1758.04  1819.22  1851.22
                             1868.44  1869.77  1910.94  2054.07  2058.04
                             2141.58  2150.70  2165.62  2173.77  2242.60
                             2316.71  4391.29  4406.33  4433.61  4451.95
                             4465.10  4475.86  4527.24  4539.26  4540.43
                             4549.59  4653.44  4670.52

 Zero-point correction=                           0.175465 (Hartree/Particle)
 Thermal correction to Energy=                    0.183074
 Thermal correction to Enthalpy=                  0.184018
 Thermal correction to Gibbs Free Energy=         0.143756
 Sum of electronic and zero-point Energies=           -311.907344
 Sum of electronic and thermal Energies=              -311.899735
 Sum of electronic and thermal Enthalpies=            -311.898791
 Sum of electronic and thermal Free Energies=         -311.939054

                     E (Thermal)             CV                S
                      KCal/Mol        Cal/Mol-Kelvin    Cal/Mol-Kelvin
 Total                  114.881             30.552             84.739
 Electronic               0.000              0.000              0.000
 Translational            0.889              2.981             39.950
 Rotational               0.889              2.981             27.960
 Vibrational            113.103             24.590             16.830
 Vibration     1          0.596              1.974              4.531
 Vibration     2          0.667              1.750              1.677
 Vibration     3          0.668              1.746              1.663
 Vibration     4          0.682              1.706              1.518
 Vibration     5          0.694              1.669              1.403
 Vibration     6          0.742              1.535              1.083
 Vibration     7          0.785              1.420              0.882
 Vibration     8          0.886              1.182              0.585
 Vibration     9          0.930              1.089              0.498

 Optimization completed.
    -- Stationary point found.
 Normal termination of Gaussian 16 at Sat Jun 11 00:25:55 2022.
