 Gaussian 16, Revision A.03,
 Gaussian 16:  ES64L-G16RevA.03 25-Dec-2016

 --------------------------
 # sp B3LYP/Def2TZVP NoSymm
 --------------------------

 ---------------------------------
 ts_initalOptXYZ_aligned_AlignedSp
 ---------------------------------
 Symbolic Z-matrix:
 Charge =  0 Multiplicity = 1

                          Input orientation:
 ---------------------------------------------------------------------
 Center     Atomic      Atomic             Coordinates (Angstroms)
 Number     Number       Type             X           Y           Z
 ---------------------------------------------------------------------
      1          1           0        2.337947    1.576578   -0.827683
      2          7           0        1.934734    0.804126   -0.324952
      3          1           0        3.443712   -0.679899   -0.696295
      4          6           0        2.462660   -0.482820   -0.298308
      5          1           0        1.686804   -2.363491    0.464853
      6          6           0        1.555541   -1.311352    0.276878
      7          1           0        0.083412    2.905087    0.143806
      8          1           0       -2.266022    2.397675   -0.074004
      9          1           0       -3.165113    0.223793   -0.517520
     10          1           0       -0.196370   -0.703786    1.496801
     11          6           0        0.395132   -0.518422    0.608381
     12          6           0        0.682270    0.808678    0.207997
     13          6           0       -0.248195    1.876260    0.182657
     14          8           0       -1.651877   -2.096509   -0.241518
     15          6           0       -1.503292   -0.930096   -0.149172
     16          6           0       -1.572729    1.569510    0.021022
     17          6           0       -2.146803    0.286113   -0.146647
 ---------------------------------------------------------------------

 SCF Done:  E(RB3LYP) =  -439.135085167     A.U. after   15 cycles

 Alpha  occ. eigenvalues --  -19.14303 -14.37915 -10.27785 -10.22925 -10.21405
 Alpha  occ. eigenvalues --  -10.19272 -10.18027 -10.17577 -10.17044 -10.16967
 Alpha  occ. eigenvalues --   -1.07474  -1.00024  -0.83058  -0.79474  -0.75550
 Alpha  occ. eigenvalues --   -0.71101  -0.61853  -0.61368  -0.59807  -0.53842
 Alpha  occ. eigenvalues --   -0.49970  -0.48997  -0.46576  -0.45690  -0.44302
 Alpha  occ. eigenvalues --   -0.43481  -0.41931  -0.40199  -0.39193  -0.38068
 Alpha  occ. eigenvalues --   -0.36778  -0.32321  -0.26700  -0.24716  -0.19268
 Alpha virt. eigenvalues --   -0.05933  -0.02090   0.01907   0.02972   0.05556
 Alpha virt. eigenvalues --    0.06039   0.07350   0.08365   0.09107   0.10872
 Alpha virt. eigenvalues --    0.11328   0.12274   0.12996   0.14630   0.15827

 Mulliken charges:
               1
     1  H    0.218931
     2  N   -0.245957
     3  H    0.139102
     4  C   -0.039454
     5  H    0.125797
     6  C   -0.153305
     7  H    0.105739
     8  H    0.112566
     9  H    0.113586
    10  H    0.134678
    11  C   -0.190237
    12  C    0.249175
    13  C   -0.281763
    14  O   -0.208296
    15  C    0.205952
    16  C   -0.018932
    17  C   -0.267582
 Sum of Mulliken charges =  -0.00000

 Dipole moment (field-independent basis, Debye):
    X=              2.9086    Y=              2.8419    Z=             -0.6207  Tot=              4.1136
 Quadrupole moment (field-independent basis, Debye-Ang):
   XX=            -51.3058   YY=            -58.1394   ZZ=            -59.7936
   XY=             -2.2022   XZ=             -3.1279   YZ=             -3.5650

 Normal termination of Gaussian 16 at Fri Jun 10 22:18:33 2022.
