 Gaussian 16, Revision A.03,
 Gaussian 16:  ES64L-G16RevA.03 25-Dec-2016

 --------------------------
 # sp B3LYP/Def2TZVP NoSymm
 --------------------------

 ---------------------------
 ts_initalOpt_zmat_AlignedSp
 ---------------------------
 Symbolic Z-matrix:
 Charge =  0 Multiplicity = 1

                          Input orientation:
 ---------------------------------------------------------------------
 Center     Atomic      Atomic             Coordinates (Angstroms)
 Number     Number       Type             X           Y           Z
 ---------------------------------------------------------------------
      1          1           0        0.000000    0.000000    0.000000
      2          7           0        0.000000    0.000000    1.005983
      3          6           0        1.145292    0.000000    1.795889
      4          6           0       -1.097558   -0.251188    1.770830
      5          1           0        2.113714    0.166034    1.355107
      6          6           0        0.783744   -0.229131    3.083115
      7          6           0       -0.649558   -0.403340    3.105032
      8          6           0       -2.409777   -0.521572    1.311360
      9          1           0        1.445188   -0.258748    3.932335
     10          1           0       -2.763984   -0.125940    0.369038
     11          1           0       -1.261149   -0.054773    3.928429
     12          6           0       -3.152293   -1.445236    1.997018
     13          1           0       -4.124988   -1.700108    1.591498
     14          6           0       -2.759265   -2.199822    3.128791
     15          1           0       -3.353936   -3.066708    3.399457
     16          6           0       -1.561390   -2.143488    3.803476
     17          8           0       -0.948317   -2.578117    4.712522
 ---------------------------------------------------------------------

 SCF Done:  E(RB3LYP) =  -439.135083534     A.U. after   15 cycles

 Alpha  occ. eigenvalues --  -19.14303 -14.37915 -10.27785 -10.22925 -10.21405
 Alpha  occ. eigenvalues --  -10.19272 -10.18027 -10.17577 -10.17044 -10.16967
 Alpha  occ. eigenvalues --   -1.07474  -1.00024  -0.83058  -0.79474  -0.75550
 Alpha  occ. eigenvalues --   -0.71101  -0.61853  -0.61368  -0.59807  -0.53842
 Alpha  occ. eigenvalues --   -0.49970  -0.48997  -0.46576  -0.45690  -0.44302
 Alpha  occ. eigenvalues --   -0.43481  -0.41931  -0.40199  -0.39193  -0.38068
 Alpha  occ. eigenvalues --   -0.36778  -0.32321  -0.26700  -0.24716  -0.19268
 Alpha virt. eigenvalues --   -0.05933  -0.02090   0.01907   0.02972   0.05556
 Alpha virt. eigenvalues --    0.06039   0.07350   0.08365   0.09108   0.10872
 Alpha virt. eigenvalues --    0.11328   0.12274   0.12997   0.14630   0.15827

 Mulliken charges:
               1
     1  H    0.218932
     2  N   -0.245969
     3  C   -0.039468
     4  C    0.249159
     5  H    0.139100
     6  C   -0.153269
     7  C   -0.190230
     8  C   -0.281748
     9  H    0.125798
    10  H    0.105739
    11  H    0.134680
    12  C   -0.018968
    13  H    0.112564
    14  C   -0.267568
    15  H    0.113590
    16  C    0.205953
    17  O   -0.208293
 Sum of Mulliken charges =  -0.00000

 Dipole moment (field-independent basis, Debye):
    X=              0.6559    Y=              1.7632    Z=             -3.6582  Tot=              4.1136
 Quadrupole moment (field-independent basis, Debye-Ang):
   XX=            -53.9257   YY=            -65.3413   ZZ=            -73.5607
   XY=              1.6567   XZ=              3.1249   YZ=              9.0233

 Normal termination of Gaussian 16 at Fri Jun 10 22:23:33 2022.
