 Gaussian 16, Revision A.03,
 Gaussian 16:  ES64L-G16RevA.03 25-Dec-2016

 --------------------------
 # sp B3LYP/Def2TZVP NoSymm
 --------------------------

 ----------------------------
 int_initalOpt_zmat_AlignedSp
 ----------------------------
 Symbolic Z-matrix:
 Charge =  0 Multiplicity = 1

                          Input orientation:
 ---------------------------------------------------------------------
 Center     Atomic      Atomic             Coordinates (Angstroms)
 Number     Number       Type             X           Y           Z
 ---------------------------------------------------------------------
      1          1           0        0.000000    0.000000    0.000000
      2          6           0        0.000000    0.000000    1.083194
      3          6           0        1.218175    0.000000    1.770696
      4          6           0       -1.223329    0.000003    1.757805
      5          1           0        2.158963    0.000001    1.233480
      6          6           0        1.136235    0.000003    3.150880
      7          6           0       -1.291938    0.000004    3.154912
      8          1           0       -2.139414    0.000002    1.179791
      9          6           0        1.951064    0.000008    4.433265
     10          6           0       -0.080960    0.000004    3.822109
     11          1           0       -2.248298    0.000005    3.663888
     12          1           0        2.564389   -0.886571    4.603901
     13          6           0        0.568776    0.000001    5.195537
     14          1           0        2.564382    0.886591    4.603900
     15          1           0        0.385804    0.886581    5.805294
     16          1           0        0.385809   -0.886581    5.805290
 ---------------------------------------------------------------------

 SCF Done:  E(RB3LYP) =  -309.742818518     A.U. after   13 cycles

 Alpha  occ. eigenvalues --  -10.18047 -10.18032 -10.17443 -10.17443 -10.17337
 Alpha  occ. eigenvalues --  -10.17285 -10.17212 -10.17159  -0.88093  -0.80978
 Alpha  occ. eigenvalues --   -0.74867  -0.68798  -0.64368  -0.59900  -0.56170
 Alpha  occ. eigenvalues --   -0.51352  -0.46836  -0.46672  -0.44725  -0.40431
 Alpha  occ. eigenvalues --   -0.40081  -0.37261  -0.35866  -0.35261  -0.32729
 Alpha  occ. eigenvalues --   -0.31683  -0.25426  -0.24295
 Alpha virt. eigenvalues --   -0.01662  -0.00276   0.04513   0.05605   0.06179
 Alpha virt. eigenvalues --    0.08597   0.09568   0.10093   0.12084   0.12147
 Alpha virt. eigenvalues --    0.12690   0.14542   0.14819   0.16993   0.17004

 Mulliken charges:
               1
     1  H    0.105999
     2  C   -0.088420
     3  C   -0.218394
     4  C   -0.088406
     5  H    0.103792
     6  C    0.021464
     7  C   -0.218425
     8  H    0.106000
     9  C   -0.106699
    10  C    0.021531
    11  H    0.103791
    12  H    0.091124
    13  C   -0.106733
    14  H    0.091124
    15  H    0.091126
    16  H    0.091127
 Sum of Mulliken charges =  -0.00000

 Dipole moment (field-independent basis, Debye):
    X=              0.2374    Y=              0.0000    Z=              0.4305  Tot=              0.4916
 Quadrupole moment (field-independent basis, Debye-Ang):
   XX=            -44.3378   YY=            -50.3168   ZZ=            -41.5877
   XY=              0.0000   XZ=              1.0540   YZ=             -0.0000

 Normal termination of Gaussian 16 at Fri Jun 10 22:19:54 2022.
