 Gaussian 16, Revision A.03,
 Gaussian 16:  ES64L-G16RevA.03 25-Dec-2016

 ----------------------------------------------------------------------
 # Opt=(Z-matrix, MaxStep=10) B3LYP/Def2TZVP Field=read NoSymm freq=nor
 aman pop=none
 ----------------------------------------------------------------------

 ------------------
 int_zmat_initalOpt
 ------------------
 Symbolic Z-matrix:
 Charge =  0 Multiplicity = 1

 SCF Done:  E(RB3LYP) =  -312.116753765     A.U. after   13 cycles
 SCF Done:  E(RB3LYP) =  -312.116761901     A.U. after    8 cycles
 SCF Done:  E(RB3LYP) =  -312.116762567     A.U. after    7 cycles
 SCF Done:  E(RB3LYP) =  -312.116762759     A.U. after    7 cycles
 Optimization completed.
    -- Stationary point found.
 Normal termination of Gaussian 16 at Fri Jun 10 22:39:42 2022.

 --------------------------------------------------------------------
 #N Geom=AllCheck Guess=TCheck SCRF=Check GenChk RB3LYP/def2TZVP Freq
 --------------------------------------------------------------------

 Structure from the checkpoint file:  "checkpoint.chk"
 ------------------
 int_zmat_initalOpt
 ------------------
 Charge =  0 Multiplicity = 1

                          Input orientation:
 ---------------------------------------------------------------------
 Center     Atomic      Atomic             Coordinates (Angstroms)
 Number     Number       Type             X           Y           Z
 ---------------------------------------------------------------------
      1          6           0        0.000000    0.000000    0.000000
      2          6           0        0.000000    0.000000    1.586417
      3          6           0        1.357727    0.000000   -0.631719
      4          6           0       -0.758699   -1.349949    0.072933
      5          1           0       -0.574036    0.828860   -0.423936
      6          6           0       -0.297621   -1.515104    1.540341
      7          6           0        1.161246    0.550602    2.342268
      8          6           0        1.906765   -0.956653   -1.370067
      9          1           0       -1.836436   -1.199209   -0.003336
     10          1           0       -0.472497   -2.128610   -0.631403
     11          1           0       -0.901487    0.536736    1.902229
     12          1           0        1.932396    0.907160   -0.462102
     13          6           0        1.981415   -0.132833    3.131807
     14          1           0        1.325475    1.620048    2.225871
     15          1           0        0.616007   -2.106437    1.602324
     16          1           0       -1.017741   -1.904780    2.260884
     17          1           0        1.399973   -1.887547   -1.591898
     18          1           0        2.895940   -0.836003   -1.792347
     19          1           0        2.799729    0.351866    3.648678
     20          1           0        1.873558   -1.199747    3.286227
 ---------------------------------------------------------------------

 SCF Done:  E(RB3LYP) =  -312.116762759     A.U. after    1 cycles

 Isotropic polarizability for W=    0.000000       92.25 Bohr**3.
 End of Minotr F.D. properties file   721 does not exist.

                      1                      2                      3
                      A                      A                      A
 Frequencies --     64.3562                94.7396               111.0613
 Red. masses --      2.9169                 2.1827                 2.3413
 Frc consts  --      0.0071                 0.0115                 0.0170
 IR Inten    --      0.0338                 0.0387                 0.0362

                      4                      5                      6
                      A                      A                      A
 Frequencies --    206.0931               250.8440               303.8408
 Red. masses --      2.1344                 2.4364                 2.4151
 Frc consts  --      0.0534                 0.0903                 0.1314
 IR Inten    --      0.0610                 0.4981                 0.3283

                      7                      8                      9
                      A                      A                      A
 Frequencies --    397.1516               493.9579               532.6838
 Red. masses --      2.0130                 2.1592                 2.1311
 Frc consts  --      0.1871                 0.3104                 0.3563
 IR Inten    --      3.0602                 2.4246                 0.9398

                     10                     11                     12
                      A                      A                      A
 Frequencies --    602.2209               642.5077               734.8167
 Red. masses --      1.9723                 2.0192                 1.5095
 Frc consts  --      0.4214                 0.4911                 0.4802
 IR Inten    --      3.2386                 5.2513                 2.4212

                     13                     14                     15
                      A                      A                      A
 Frequencies --    770.0253               813.6658               910.1524
 Red. masses --      1.8099                 2.2035                 2.1807
 Frc consts  --      0.6323                 0.8595                 1.0643
 IR Inten    --      4.5417                 3.0183                 4.7579

                     16                     17                     18
                      A                      A                      A
 Frequencies --    937.0155               945.4465               948.1279
 Red. masses --      2.6638                 2.2127                 1.3608
 Frc consts  --      1.3780                 1.1653                 0.7208
 IR Inten    --      1.8218                 9.2138                41.9554

                     19                     20                     21
                      A                      A                      A
 Frequencies --    954.4920               979.4060              1026.3030
 Red. masses --      1.4113                 1.6902                 1.2394
 Frc consts  --      0.7576                 0.9552                 0.7691
 IR Inten    --     34.1182                 0.3844                 0.8554

                     22                     23                     24
                      A                      A                      A
 Frequencies --   1031.2880              1037.4226              1062.4736
 Red. masses --      1.1396                 1.1254                 1.8484
 Frc consts  --      0.7141                 0.7136                 1.2294
 IR Inten    --     10.3769                 7.9281                 2.7333

                     25                     26                     27
                      A                      A                      A
 Frequencies --   1083.3885              1122.1991              1161.0714
 Red. masses --      1.7703                 1.5343                 1.8177
 Frc consts  --      1.2242                 1.1384                 1.4438
 IR Inten    --      8.9506                 5.5640                 0.4521

                     28                     29                     30
                      A                      A                      A
 Frequencies --   1205.3431              1226.0707              1256.8595
 Red. masses --      1.3402                 1.2817                 1.3563
 Frc consts  --      1.1472                 1.1352                 1.2624
 IR Inten    --      2.9046                 0.7866                 0.2230

                     31                     32                     33
                      A                      A                      A
 Frequencies --   1269.1306              1274.9633              1333.1853
 Red. masses --      1.3276                 1.4569                 1.2990
 Frc consts  --      1.2599                 1.3953                 1.3603
 IR Inten    --      2.9239                 0.0462                 0.5413

                     34                     35                     36
                      A                      A                      A
 Frequencies --   1341.2837              1359.8163              1379.5071
 Red. masses --      1.2882                 1.4397                 1.6603
 Frc consts  --      1.3654                 1.5685                 1.8616
 IR Inten    --      0.0603                 1.5165                 4.2132

                     37                     38                     39
                      A                      A                      A
 Frequencies --   1455.6416              1457.8277              1487.5457
 Red. masses --      1.1966                 1.2093                 1.0935
 Frc consts  --      1.4939                 1.5143                 1.4256
 IR Inten    --      2.4488                 5.2359                 2.5073

                     40                     41                     42
                      A                      A                      A
 Frequencies --   1506.4355              1702.0878              1704.8648
 Red. masses --      1.1264                 4.5510                 4.4899
 Frc consts  --      1.5060                 7.7683                 7.6889
 IR Inten    --      4.6806                18.2261                13.4202

                     43                     44                     45
                      A                      A                      A
 Frequencies --   3004.0838              3027.8894              3053.9470
 Red. masses --      1.0831                 1.0839                 1.0587
 Frc consts  --      5.7587                 5.8548                 5.8178
 IR Inten    --     17.4557                37.2509                43.1228

                     46                     47                     48
                      A                      A                      A
 Frequencies --   3061.4311              3098.5227              3114.2542
 Red. masses --      1.0650                 1.1037                 1.0859
 Frc consts  --      5.8807                 6.2434                 6.2054
 IR Inten    --     41.6944                20.3607                17.7147

                     49                     50                     51
                      A                      A                      A
 Frequencies --   3115.3104              3126.7549              3141.2954
 Red. masses --      1.1032                 1.0837                 1.0625
 Frc consts  --      6.3083                 6.2423                 6.1774
 IR Inten    --     31.4538                17.3458                 5.5936

                     52                     53                     54
                      A                      A                      A
 Frequencies --   3146.6806              3218.7383              3222.2585
 Red. masses --      1.0639                 1.1155                 1.1152
 Frc consts  --      6.2064                 6.8090                 6.8220
 IR Inten    --      5.8328                12.5623                11.2663

 - Thermochemistry -
 -------------------
 Temperature   298.150 Kelvin.  Pressure   1.00000 Atm.
 Atom     1 has atomic number  6 and mass  12.00000

 Molecular mass:   108.09390 amu.
 Principal axes and moments of inertia in atomic units:
                           1         2         3
     Eigenvalues --   645.878221063.841421371.09761
           X            0.11187   0.91658  -0.38389
           Y            0.21291   0.35523   0.91021
           Z            0.97065  -0.18355  -0.15541
 This molecule is an asymmetric top.
 Rotational symmetry number  1.
 Warning -- assumption of classical behavior for rotation
           may cause significant error
 Rotational temperatures (Kelvin)      0.13410     0.08142     0.06317
 Rotational constants (GHZ):           2.79424     1.69644     1.31627
 Zero-point vibrational energy     463603.7 (Joules/Mol)
                                  110.80393 (Kcal/Mol)
 Warning -- explicit consideration of  10 degrees of freedom as
           vibrations may cause significant error
 Vibrational temperatures:     92.59   136.31   159.79   296.52   360.91
          (Kelvin)            437.16   571.41   710.70   766.41   866.46
                              924.43  1057.24  1107.89  1170.68  1309.51
                             1348.16  1360.29  1364.14  1373.30  1409.15
                             1476.62  1483.79  1492.62  1528.66  1558.75
                             1614.59  1670.52  1734.22  1764.04  1808.34
                             1826.00  1834.39  1918.16  1929.81  1956.47
                             1984.80  2094.34  2097.49  2140.25  2167.42
                             2448.92  2452.92  4322.21  4356.46  4393.95
                             4404.72  4458.08  4480.72  4482.24  4498.70
                             4519.62  4527.37  4631.05  4636.11

 Zero-point correction=                           0.176577 (Hartree/Particle)
 Thermal correction to Energy=                    0.185026
 Thermal correction to Enthalpy=                  0.185970
 Thermal correction to Gibbs Free Energy=         0.143266
 Sum of electronic and zero-point Energies=           -311.940185
 Sum of electronic and thermal Energies=              -311.931737
 Sum of electronic and thermal Enthalpies=            -311.930793
 Sum of electronic and thermal Free Energies=         -311.973496

                     E (Thermal)             CV                S
                      KCal/Mol        Cal/Mol-Kelvin    Cal/Mol-Kelvin
 Total                  116.106             31.627             89.878
 Electronic               0.000              0.000              0.000
 Translational            0.889              2.981             39.950
 Rotational               0.889              2.981             28.334
 Vibrational            114.328             25.665             21.593
 Vibration     1          0.597              1.971              4.319
 Vibration     2          0.603              1.953              3.560
 Vibration     3          0.607              1.940              3.250
 Vibration     4          0.641              1.831              2.078
 Vibration     5          0.663              1.761              1.725
 Vibration     6          0.695              1.666              1.396
 Vibration     7          0.764              1.476              0.973
 Vibration     8          0.850              1.263              0.673
 Vibration     9          0.888              1.178              0.581
 Vibration    10          0.961              1.027              0.446

                       ! Non-Optimized Parameters !
 Normal termination of Gaussian 16 at Fri Jun 10 22:48:15 2022.
