 Gaussian 16, Revision A.03,
 Gaussian 16:  ES64L-G16RevA.03 25-Dec-2016

 ----------------------------------------------------------------------
 # Opt=(TS, CalcFC, noeigentest, Z-matrix, MaxStep=10) Field=read NoSym
 m B3LYP/Def2TZVP freq=noraman pop=none
 ----------------------------------------------------------------------

 -----------------
 ts_zmat_initalOpt
 -----------------
 Symbolic Z-matrix:
 Charge =  0 Multiplicity = 1

 SCF Done:  E(RB3LYP) =  -312.080212059     A.U. after   14 cycles
 SCF Done:  E(RB3LYP) =  -312.080216263     A.U. after    8 cycles
 Optimization completed.
    -- Stationary point found.
 Normal termination of Gaussian 16 at Fri Jun 10 22:43:54 2022.

 --------------------------------------------------------------------
 #N Geom=AllCheck Guess=TCheck SCRF=Check GenChk RB3LYP/def2TZVP Freq
 --------------------------------------------------------------------

 Structure from the checkpoint file:  "checkpoint.chk"
 -----------------
 ts_zmat_initalOpt
 -----------------
 Charge =  0 Multiplicity = 1

                          Input orientation:
 ---------------------------------------------------------------------
 Center     Atomic      Atomic             Coordinates (Angstroms)
 Number     Number       Type             X           Y           Z
 ---------------------------------------------------------------------
      1          6           0        0.000000    0.000000    0.000000
      2          6           0        0.000000    0.000000    1.391613
      3          6           0        1.264401    0.000000   -0.850590
      4          1           0       -0.912650    0.315498   -0.492464
      5          6           0        1.388593   -1.481501   -1.249336
      6          6           0        1.069720   -0.368503    2.175779
      7          1           0       -0.970972    0.072107    1.874506
      8          1           0        1.150487    0.658710   -1.712836
      9          1           0        2.128301    0.362120   -0.291164
     10          6           0        0.173335   -2.102306   -0.570774
     11          1           0        2.083502   -0.293984    1.811562
     12          1           0        0.963733   -0.417478    3.251144
     13          1           0        1.347774   -1.630056   -2.329737
     14          1           0        2.319309   -1.935394   -0.904903
     15          6           0        0.226449   -2.800774    0.631876
     16          1           0       -0.699530   -2.259565   -1.194198
     17          6           0        1.255567   -2.719052    1.543404
     18          1           0       -0.705527   -3.245149    0.972116
     19          1           0        2.255551   -2.449780    1.237715
     20          1           0        1.180538   -3.228295    2.494876
 ---------------------------------------------------------------------

 SCF Done:  E(RB3LYP) =  -312.080216263     A.U. after    1 cycles

 Isotropic polarizability for W=    0.000000      102.28 Bohr**3.
 End of Minotr F.D. properties file   721 does not exist.

 ******    1 imaginary frequencies (negative Signs) ******

                      1                      2                      3
                      A                      A                      A
 Frequencies --   -428.8279                56.2409               260.1962
 Red. masses --      8.2021                 2.0935                 2.8950
 Frc consts  --      0.8887                 0.0039                 0.1155
 IR Inten    --      2.0530                 0.0029                 0.4202

                      4                      5                      6
                      A                      A                      A
 Frequencies --    260.9165               284.4521               303.0710
 Red. masses --      3.6742                 2.9623                 3.3621
 Frc consts  --      0.1474                 0.1412                 0.1820
 IR Inten    --      0.4805                 0.3057                 0.1079

                      7                      8                      9
                      A                      A                      A
 Frequencies --    370.6756               423.3256               530.4667
 Red. masses --      2.3202                 2.2721                 2.2808
 Frc consts  --      0.1878                 0.2399                 0.3781
 IR Inten    --      1.5721                 1.6194                 2.5415

                     10                     11                     12
                      A                      A                      A
 Frequencies --    573.3687               659.0584               686.1665
 Red. masses --      2.0358                 2.6456                 1.3375
 Frc consts  --      0.3943                 0.6771                 0.3710
 IR Inten    --      0.4760                 3.7979                 0.1381

                     13                     14                     15
                      A                      A                      A
 Frequencies --    719.1270               762.9760               786.1045
 Red. masses --      1.3216                 1.1001                 1.3247
 Frc consts  --      0.4027                 0.3773                 0.4823
 IR Inten    --     23.6277                 5.6225                 7.3139

                     16                     17                     18
                      A                      A                      A
 Frequencies --    862.4666               899.1791               914.2914
 Red. masses --      1.4941                 1.1854                 2.3274
 Frc consts  --      0.6548                 0.5647                 1.1463
 IR Inten    --     11.8046                 2.4308                 1.4111

                     19                     20                     21
                      A                      A                      A
 Frequencies --    942.9980               952.9735               992.9143
 Red. masses --      1.5112                 1.4892                 1.5100
 Frc consts  --      0.7918                 0.7968                 0.8771
 IR Inten    --      0.0869                 9.8668                 5.5441

                     22                     23                     24
                      A                      A                      A
 Frequencies --    994.9940              1011.5230              1021.6626
 Red. masses --      1.6817                 1.5662                 1.2644
 Frc consts  --      0.9809                 0.9442                 0.7776
 IR Inten    --      0.7262                 0.5518                21.7654

                     25                     26                     27
                      A                      A                      A
 Frequencies --   1041.2802              1088.5874              1147.4257
 Red. masses --      1.4254                 1.9429                 1.2901
 Frc consts  --      0.9106                 1.3565                 1.0008
 IR Inten    --      0.2259                 5.5269                 0.2746

                     28                     29                     30
                      A                      A                      A
 Frequencies --   1181.1281              1220.5720              1264.3928
 Red. masses --      1.6036                 1.5185                 1.1332
 Frc consts  --      1.3181                 1.3329                 1.0674
 IR Inten    --      0.5067                 0.2745                 0.0554

                     31                     32                     33
                      A                      A                      A
 Frequencies --   1289.0941              1296.9940              1300.4551
 Red. masses --      1.4776                 1.4352                 1.3333
 Frc consts  --      1.4467                 1.4225                 1.3285
 IR Inten    --      0.0970                 0.8879                 1.1241

                     34                     35                     36
                      A                      A                      A
 Frequencies --   1325.1564              1429.3164              1430.4278
 Red. masses --      1.4064                 1.3400                 1.3281
 Frc consts  --      1.4551                 1.6129                 1.6011
 IR Inten    --      2.9892                 1.3008                 2.4995

                     37                     38                     39
                      A                      A                      A
 Frequencies --   1487.7642              1495.8339              1506.1038
 Red. masses --      1.1688                 2.2948                 1.5436
 Frc consts  --      1.5242                 3.0252                 2.0630
 IR Inten    --      2.5438                 3.9713                 0.0646

                     40                     41                     42
                      A                      A                      A
 Frequencies --   1509.9782              1559.8728              1611.4822
 Red. masses --      1.1248                 1.8960                 3.7577
 Frc consts  --      1.5110                 2.7181                 5.7495
 IR Inten    --     15.7589                 2.2346                 4.9606

                     43                     44                     45
                      A                      A                      A
 Frequencies --   3043.6034              3052.0950              3071.8489
 Red. masses --      1.0584                 1.0600                 1.1054
 Frc consts  --      5.7766                 5.8175                 6.1457
 IR Inten    --     32.4491                53.3680                 0.4211

                     46                     47                     48
                      A                      A                      A
 Frequencies --   3093.1431              3117.0083              3122.3033
 Red. masses --      1.1059                 1.0848                 1.0853
 Frc consts  --      6.2339                 6.2100                 6.2340
 IR Inten    --     23.3731                12.9460                20.4136

                     49                     50                     51
                      A                      A                      A
 Frequencies --   3153.5069              3158.0056              3159.6639
 Red. masses --      1.0731                 1.0760                 1.0730
 Frc consts  --      6.2876                 6.3222                 6.3115
 IR Inten    --      2.1869                11.3980                39.2796

                     52                     53                     54
                      A                      A                      A
 Frequencies --   3164.5375              3233.6038              3244.9405
 Red. masses --      1.0745                 1.1164                 1.1138
 Frc consts  --      6.3401                 6.8779                 6.9102
 IR Inten    --      6.4942                 1.0107                18.0687

 - Thermochemistry -
 -------------------
 Temperature   298.150 Kelvin.  Pressure   1.00000 Atm.
 Atom     1 has atomic number  6 and mass  12.00000

 Molecular mass:   108.09390 amu.
 Principal axes and moments of inertia in atomic units:
                           1         2         3
     Eigenvalues --   724.13825 781.462061140.06984
           X           -0.04536  -0.07768   0.99595
           Y           -0.27191   0.96029   0.06252
           Z            0.96125   0.26797   0.06468
 This molecule is an asymmetric top.
 Rotational symmetry number  1.
 Warning -- assumption of classical behavior for rotation
           may cause significant error
 Rotational temperatures (Kelvin)      0.11961     0.11084     0.07597
 Rotational constants (GHZ):           2.49226     2.30944     1.58301
    1 imaginary frequencies ignored.
 Zero-point vibrational energy     460976.6 (Joules/Mol)
                                  110.17606 (Kcal/Mol)
 Warning -- explicit consideration of   9 degrees of freedom as
           vibrations may cause significant error
 Vibrational temperatures:     80.92   374.36   375.40   409.26   436.05
          (Kelvin)            533.32   609.07   763.22   824.95   948.24
                              987.24  1034.66  1097.75  1131.03  1240.90
                             1293.72  1315.46  1356.76  1371.12  1428.58
                             1431.57  1455.36  1469.94  1498.17  1566.23
                             1650.89  1699.38  1756.13  1819.18  1854.72
                             1866.09  1871.06  1906.60  2056.47  2058.07
                             2140.56  2152.17  2166.95  2172.52  2244.31
                             2318.56  4379.07  4391.28  4419.71  4450.34
                             4484.68  4492.30  4537.19  4543.67  4546.05
                             4553.06  4652.43  4668.75

 Zero-point correction=                           0.175577 (Hartree/Particle)
 Thermal correction to Energy=                    0.183172
 Thermal correction to Enthalpy=                  0.184116
 Thermal correction to Gibbs Free Energy=         0.143860
 Sum of electronic and zero-point Energies=           -311.904640
 Sum of electronic and thermal Energies=              -311.897044
 Sum of electronic and thermal Enthalpies=            -311.896100
 Sum of electronic and thermal Free Energies=         -311.936356

                     E (Thermal)             CV                S
                      KCal/Mol        Cal/Mol-Kelvin    Cal/Mol-Kelvin
 Total                  114.942             30.496             84.727
 Electronic               0.000              0.000              0.000
 Translational            0.889              2.981             39.950
 Rotational               0.889              2.981             27.958
 Vibrational            113.165             24.534             16.818
 Vibration     1          0.596              1.975              4.585
 Vibration     2          0.668              1.745              1.660
 Vibration     3          0.669              1.744              1.656
 Vibration     4          0.683              1.703              1.507
 Vibration     5          0.695              1.668              1.400
 Vibration     6          0.743              1.532              1.077
 Vibration     7          0.785              1.420              0.881
 Vibration     8          0.885              1.183              0.586
 Vibration     9          0.930              1.089              0.498

 Optimization completed.
    -- Stationary point found.
 Normal termination of Gaussian 16 at Fri Jun 10 22:53:09 2022.
