 Gaussian 16, Revision A.03,
 Gaussian 16:  ES64L-G16RevA.03 25-Dec-2016

 --------------------------
 # sp B3LYP/Def2TZVP NoSymm
 --------------------------

 ----------------------------------
 int_initalOptXYZ_aligned_AlignedSp
 ----------------------------------
 Symbolic Z-matrix:
 Charge =  0 Multiplicity = 1

                          Input orientation:
 ---------------------------------------------------------------------
 Center     Atomic      Atomic             Coordinates (Angstroms)
 Number     Number       Type             X           Y           Z
 ---------------------------------------------------------------------
      1          6           0       -1.428800   -0.418886    0.496231
      2          6           0       -0.250081   -0.500129   -0.453128
      3          6           0       -1.178861    0.678081   -0.501666
      4          1           0       -1.210841   -0.208672    1.534888
      5          1           0       -2.262702   -1.089072    0.334423
      6          1           0       -0.824203    1.626865   -0.123338
      7          1           0       -1.844974    0.761369   -1.349978
      8          6           0        1.136786   -0.410772    0.063197
      9          1           0       -0.371498   -1.227227   -1.249943
     10          6           0        1.842359    0.698001    0.257332
     11          1           0        1.595399   -1.367064    0.305058
     12          1           0        1.449435    1.679499    0.021047
     13          1           0        2.846465    0.660283    0.659766
 ---------------------------------------------------------------------

 SCF Done:  E(RB3LYP) =  -195.367315149     A.U. after   13 cycles

 Alpha  occ. eigenvalues --  -10.18343 -10.17640 -10.17501 -10.17344 -10.16187
 Alpha  occ. eigenvalues --   -0.86643  -0.76244  -0.63241  -0.60399  -0.54113
 Alpha  occ. eigenvalues --   -0.50618  -0.47318  -0.44430  -0.39079  -0.37052
 Alpha  occ. eigenvalues --   -0.35293  -0.32157  -0.30019  -0.25365
 Alpha virt. eigenvalues --    0.00268   0.04790   0.05826   0.07399   0.07533
 Alpha virt. eigenvalues --    0.10481   0.11526   0.12336   0.12954   0.15722
 Alpha virt. eigenvalues --    0.16347   0.17097   0.18594   0.19913   0.22286

 Mulliken charges:
               1
     1  C   -0.207553
     2  C   -0.018748
     3  C   -0.215713
     4  H    0.108683
     5  H    0.103110
     6  H    0.103631
     7  H    0.104705
     8  C   -0.126086
     9  H    0.094055
    10  C   -0.256196
    11  H    0.098655
    12  H    0.101637
    13  H    0.109820
 Sum of Mulliken charges =  -0.00000

 Dipole moment (field-independent basis, Debye):
    X=             -0.3685    Y=             -0.2279    Z=             -0.0824  Tot=              0.4410
 Quadrupole moment (field-independent basis, Debye-Ang):
   XX=            -31.9309   YY=            -30.8654   ZZ=            -33.0127
   XY=              0.3918   XZ=              1.5596   YZ=              0.4404

 Normal termination of Gaussian 16 at Fri Jun 10 02:26:42 2022.
