 Gaussian 16, Revision A.03,
 Gaussian 16:  ES64L-G16RevA.03 25-Dec-2016

 ----------------------------------------------------------------------
 # Opt=(TS, CalcFC, noeigentest, Z-matrix, MaxStep=10) geom=allcheckpoi
 nt guess=read Field=read NoSymm B3LYP/Def2TZVP freq=noraman pop=none
 ----------------------------------------------------------------------

 Structure from the checkpoint file:  "checkpoint.chk"
 -----------------
 ts_zmat_initalOpt
 -----------------
 Charge =  0 Multiplicity = 1

 SCF Done:  E(RB3LYP) =  -289.018728811     A.U. after   10 cycles
 SCF Done:  E(RB3LYP) =  -289.018733666     A.U. after    8 cycles
 Optimization completed.
    -- Stationary point found.
 Normal termination of Gaussian 16 at Fri Jun 10 12:20:05 2022.

 --------------------------------------------------------------------
 #N Geom=AllCheck Guess=TCheck SCRF=Check GenChk RB3LYP/def2TZVP Freq
 --------------------------------------------------------------------

 Structure from the checkpoint file:  "checkpoint.chk"
 -----------------
 ts_zmat_initalOpt
 -----------------
 Charge =  0 Multiplicity = 1

                          Input orientation:
 ---------------------------------------------------------------------
 Center     Atomic      Atomic             Coordinates (Angstroms)
 Number     Number       Type             X           Y           Z
 ---------------------------------------------------------------------
      1          7           0        0.000000    0.000000    0.000000
      2          8           0        0.000000    0.000000    1.338179
      3          6           0        1.365134    0.000000   -0.544516
      4          6           0       -0.841802   -1.063315   -0.542576
      5          1           0        1.868282   -0.940385   -0.307869
      6          1           0        1.916855    0.815364   -0.084857
      7          1           0        1.331156    0.141784   -1.626107
      8          1           0       -1.834001   -0.970490   -0.103558
      9          1           0       -0.427938   -2.043976   -0.288000
     10          1           0       -0.904002   -0.964544   -1.629147
     11          6           0       -0.880198    1.809798   -0.380550
     12          6           0       -1.128288    2.219374    0.941139
     13          1           0       -0.054886    2.235966   -0.937229
     14          1           0       -1.682666    1.426475   -1.002606
     15          1           0       -0.560165    1.122136    1.491644
     16          1           0       -2.156244    2.204190    1.293664
     17          1           0       -0.536859    3.037905    1.337637
 ---------------------------------------------------------------------

 SCF Done:  E(RB3LYP) =  -289.018733666     A.U. after    1 cycles

 Isotropic polarizability for W=    0.000000       71.56 Bohr**3.
 End of Minotr F.D. properties file   721 does not exist.

 ******    1 imaginary frequencies (negative Signs) ******

                      1                      2                      3
                      A                      A                      A
 Frequencies --  -1124.1755               116.1568               222.4705
 Red. masses --      1.2772                 2.2587                 1.1289
 Frc consts  --      0.9510                 0.0180                 0.0329
 IR Inten    --    266.1517                 0.2606                 0.1750

                      4                      5                      6
                      A                      A                      A
 Frequencies --    235.6602               245.3554               276.7445
 Red. masses --      1.9974                 1.1071                 2.6477
 Frc consts  --      0.0654                 0.0393                 0.1195
 IR Inten    --      0.0531                 1.7820                19.4783

                      7                      8                      9
                      A                      A                      A
 Frequencies --    380.4910               425.9236               495.6572
 Red. masses --      2.7636                 2.9670                 3.2421
 Frc consts  --      0.2357                 0.3171                 0.4693
 IR Inten    --     27.8124                22.5140                 8.6200

                     10                     11                     12
                      A                      A                      A
 Frequencies --    534.7309               569.7777               635.6753
 Red. masses --      1.1531                 3.0715                 5.4685
 Frc consts  --      0.1943                 0.5875                 1.3019
 IR Inten    --      2.1846                 5.5737                 7.6337

                     13                     14                     15
                      A                      A                      A
 Frequencies --    817.2051               864.5858               921.6508
 Red. masses --      1.0880                 4.2632                 1.1159
 Frc consts  --      0.4281                 1.8776                 0.5585
 IR Inten    --      1.9061                27.7025                 2.5547

                     16                     17                     18
                      A                      A                      A
 Frequencies --    999.4077              1010.7921              1067.6040
 Red. masses --      1.2987                 1.5542                 1.1739
 Frc consts  --      0.7643                 0.9356                 0.7883
 IR Inten    --     18.3108                 1.5961                 4.6705

                     19                     20                     21
                      A                      A                      A
 Frequencies --   1085.9765              1100.4255              1198.2749
 Red. masses --      2.0253                 1.2395                 1.6126
 Frc consts  --      1.4073                 0.8843                 1.3642
 IR Inten    --     43.3659                 0.8953                 1.1876

                     22                     23                     24
                      A                      A                      A
 Frequencies --   1233.4553              1256.1829              1262.1971
 Red. masses --      1.4661                 2.9703                 2.1621
 Frc consts  --      1.3142                 2.7616                 2.0295
 IR Inten    --      1.7896                 4.1409                56.6988

                     25                     26                     27
                      A                      A                      A
 Frequencies --   1313.3053              1321.4443              1423.7385
 Red. masses --      1.8447                 1.1735                 1.1774
 Frc consts  --      1.8746                 1.2073                 1.4062
 IR Inten    --     88.4891                35.4087                 0.7868

                     28                     29                     30
                      A                      A                      A
 Frequencies --   1451.7788              1469.1016              1470.3905
 Red. masses --      1.1864                 1.1011                 1.0514
 Frc consts  --      1.4733                 1.4002                 1.3393
 IR Inten    --      3.4121                 1.8684                 1.7201

                     31                     32                     33
                      A                      A                      A
 Frequencies --   1485.1539              1491.4362              1506.4689
 Red. masses --      1.0481                 1.0479                 1.0627
 Frc consts  --      1.3620                 1.3734                 1.4210
 IR Inten    --      8.7370                 6.1331                 5.3239

                     34                     35                     36
                      A                      A                      A
 Frequencies --   1540.9630              1691.7188              3010.3852
 Red. masses --      1.4802                 1.0595                 1.0346
 Frc consts  --      2.0708                 1.7865                 5.5243
 IR Inten    --     29.1849                30.1777                54.4760

                     37                     38                     39
                      A                      A                      A
 Frequencies --   3034.0788              3072.0121              3094.3888
 Red. masses --      1.0359                 1.1017                 1.0548
 Frc consts  --      5.6183                 6.1258                 5.9510
 IR Inten    --     40.3425                24.1954                24.2921

                     40                     41                     42
                      A                      A                      A
 Frequencies --   3099.9972              3112.3922              3116.0260
 Red. masses --      1.1039                 1.0637                 1.1003
 Frc consts  --      6.2504                 6.0710                 6.2945
 IR Inten    --     21.6054                32.7780                24.4387

                     43                     44                     45
                      A                      A                      A
 Frequencies --   3156.0755              3170.5983              3200.2831
 Red. masses --      1.1013                 1.1093                 1.1133
 Frc consts  --      6.4633                 6.5704                 6.7180
 IR Inten    --      2.4932                 2.1765                20.2326

 - Thermochemistry -
 -------------------
 Temperature   298.150 Kelvin.  Pressure   1.00000 Atm.
 Atom     1 has atomic number  7 and mass  14.00307

 Molecular mass:    89.08406 amu.
 Principal axes and moments of inertia in atomic units:
                           1         2         3
     Eigenvalues --   375.01161 712.95149 726.83030
           X           -0.43310   0.88637   0.16364
           Y            0.85071   0.46197  -0.25074
           Z            0.29784  -0.03062   0.95412
 This molecule is an asymmetric top.
 Rotational symmetry number  1.
 Rotational temperatures (Kelvin)      0.23096     0.12149     0.11917
 Rotational constants (GHZ):           4.81249     2.53137     2.48303
    1 imaginary frequencies ignored.
 Zero-point vibrational energy     383930.3 (Joules/Mol)
                                   91.76155 (Kcal/Mol)
 Warning -- explicit consideration of  10 degrees of freedom as
           vibrations may cause significant error
 Vibrational temperatures:    167.12   320.09   339.06   353.01   398.17
          (Kelvin)            547.44   612.81   713.14   769.36   819.78
                              914.59  1175.78  1243.95  1326.05  1437.92
                             1454.30  1536.04  1562.48  1583.27  1724.05
                             1774.67  1807.37  1816.02  1889.55  1901.26
                             2048.44  2088.79  2113.71  2115.56  2136.81
                             2145.84  2167.47  2217.10  2434.01  4331.27
                             4365.36  4419.94  4452.14  4460.20  4478.04
                             4483.27  4540.89  4561.78  4604.49

 Zero-point correction=                           0.146231 (Hartree/Particle)
 Thermal correction to Energy=                    0.153565
 Thermal correction to Enthalpy=                  0.154509
 Thermal correction to Gibbs Free Energy=         0.115732
 Sum of electronic and zero-point Energies=           -288.872502
 Sum of electronic and thermal Energies=              -288.865169
 Sum of electronic and thermal Enthalpies=            -288.864225
 Sum of electronic and thermal Free Energies=         -288.903002

                     E (Thermal)             CV                S
                      KCal/Mol        Cal/Mol-Kelvin    Cal/Mol-Kelvin
 Total                   96.363             27.352             81.614
 Electronic               0.000              0.000              0.000
 Translational            0.889              2.981             39.373
 Rotational               0.889              2.981             26.766
 Vibrational             94.586             21.390             15.474
 Vibration     1          0.608              1.936              3.163
 Vibration     2          0.648              1.807              1.939
 Vibration     3          0.655              1.786              1.835
 Vibration     4          0.660              1.770              1.764
 Vibration     5          0.678              1.716              1.554
 Vibration     6          0.750              1.512              1.037
 Vibration     7          0.788              1.414              0.872
 Vibration     8          0.851              1.260              0.669
 Vibration     9          0.890              1.173              0.577
 Vibration    10          0.926              1.097              0.505

 Optimization completed.
    -- Stationary point found.
 Normal termination of Gaussian 16 at Fri Jun 10 12:24:19 2022.
