 Gaussian 16, Revision A.03,
 Gaussian 16:  ES64L-G16RevA.03 25-Dec-2016

 --------------------------
 # sp B3LYP/Def2TZVP NoSymm
 --------------------------

 ----------------------------------
 int_initalOptXYZ_aligned_AlignedSp
 ----------------------------------
 Symbolic Z-matrix:
 Charge =  0 Multiplicity = 1

                          Input orientation:
 ---------------------------------------------------------------------
 Center     Atomic      Atomic             Coordinates (Angstroms)
 Number     Number       Type             X           Y           Z
 ---------------------------------------------------------------------
      1          6           0        1.846268    0.587749    1.267007
      2          6           0        0.495392   -0.063121    1.111041
      3          6           0        2.111915   -0.488455   -0.844917
      4          6           0        2.685421    0.361770    0.258538
      5          6           0       -0.134758    0.456505   -0.227639
      6          6           0        0.832595    0.202551   -1.382157
      7          1           0        0.352270   -0.416767   -2.138078
      8          1           0        1.086028    1.155642   -1.848588
      9          1           0        2.820358   -0.638650   -1.659442
     10          1           0       -0.174183    0.154071    1.939121
     11          6           0        1.691179   -1.847885   -0.230152
     12          1           0        1.213271   -2.457589   -0.999894
     13          1           0        2.574813   -2.390224    0.108214
     14          6           0        0.719560   -1.590205    0.948481
     15          1           0       -0.235502   -2.095355    0.789027
     16          1           0        1.126713   -1.976326    1.883452
     17          1           0        3.695488    0.749826    0.216909
     18          1           0        2.086609    1.180435    2.140037
     19          7           0       -0.438677    1.957033    0.061241
     20          8           0        0.078088    2.732374   -0.674883
     21          6           0       -1.527699   -0.140238   -0.460246
     22          8           0       -1.892908   -0.656823   -1.485119
     23          8           0       -2.310520    0.001911    0.618845
     24          6           0       -3.661227   -0.473555    0.487484
     25          1           0       -4.138489   -0.257149    1.438932
     26          1           0       -4.168677    0.046049   -0.324134
     27          1           0       -3.670300   -1.544282    0.287127
 ---------------------------------------------------------------------

 SCF Done:  E(RB3LYP) =  -669.471113151     A.U. after   17 cycles

 Alpha  occ. eigenvalues --  -19.20250 -19.18603 -19.12770 -14.44206 -10.31355
 Alpha  occ. eigenvalues --  -10.23551 -10.22848 -10.19840 -10.18576 -10.18074
 Alpha  occ. eigenvalues --  -10.17487 -10.17355 -10.17257 -10.17163  -1.18551
 Alpha  occ. eigenvalues --   -1.12311  -1.03483  -0.88918  -0.80978  -0.76395
 Alpha  occ. eigenvalues --   -0.75494  -0.73822  -0.69138  -0.62364  -0.61463
 Alpha  occ. eigenvalues --   -0.60308  -0.56869  -0.54110  -0.53647  -0.51503
 Alpha  occ. eigenvalues --   -0.49246  -0.48983  -0.48375  -0.46921  -0.46014
 Alpha  occ. eigenvalues --   -0.45091  -0.43442  -0.42334  -0.41080  -0.40218
 Alpha  occ. eigenvalues --   -0.39751  -0.39169  -0.38243  -0.37246  -0.36912
 Alpha  occ. eigenvalues --   -0.33180  -0.32307  -0.31930  -0.31234  -0.29608
 Alpha  occ. eigenvalues --   -0.26076  -0.23487
 Alpha virt. eigenvalues --   -0.09681  -0.01617   0.00430   0.02535   0.04373
 Alpha virt. eigenvalues --    0.06167   0.06274   0.06621   0.07925   0.08640
 Alpha virt. eigenvalues --    0.09168   0.09909   0.10637   0.11137   0.11462

 Mulliken charges:
               1
     1  C   -0.244454
     2  C    0.079208
     3  C    0.093011
     4  C   -0.171349
     5  C    0.230994
     6  C   -0.273253
     7  H    0.130517
     8  H    0.115392
     9  H    0.073049
    10  H    0.094120
    11  C   -0.177980
    12  H    0.088942
    13  H    0.089870
    14  C   -0.234845
    15  H    0.098878
    16  H    0.094798
    17  H    0.103597
    18  H    0.102280
    19  N    0.055880
    20  O   -0.196778
    21  C    0.201493
    22  O   -0.307256
    23  O   -0.252365
    24  C   -0.183445
    25  H    0.130787
    26  H    0.131910
    27  H    0.126998
 Sum of Mulliken charges =  -0.00000

 Dipole moment (field-independent basis, Debye):
    X=              0.0644    Y=             -1.8643    Z=              1.6177  Tot=              2.4692
 Quadrupole moment (field-independent basis, Debye-Ang):
   XX=            -72.8447   YY=            -88.6875   ZZ=            -84.5876
   XY=              0.6171   XZ=             -4.6289   YZ=             -1.2785

 Normal termination of Gaussian 16 at Fri Jun 10 03:43:34 2022.
