 Gaussian 16, Revision A.03,
 Gaussian 16:  ES64L-G16RevA.03 25-Dec-2016

 ----------------------------------------------------------------------
 # Opt=(Z-matrix, MaxStep=10) B3LYP/Def2TZVP geom=allcheckpoint guess=r
 ead Field=read NoSymm freq=noraman pop=none
 ----------------------------------------------------------------------

 Structure from the checkpoint file:  "checkpoint.chk"
 ------------------
 int_zmat_initalOpt
 ------------------
 Charge =  0 Multiplicity = 1

 SCF Done:  E(RB3LYP) =  -822.527720359     A.U. after   11 cycles
 SCF Done:  E(RB3LYP) =  -822.527746169     A.U. after   10 cycles
 SCF Done:  E(RB3LYP) =  -822.527753058     A.U. after    9 cycles
 SCF Done:  E(RB3LYP) =  -822.527755791     A.U. after    9 cycles
 SCF Done:  E(RB3LYP) =  -822.527757227     A.U. after    8 cycles
 SCF Done:  E(RB3LYP) =  -822.527758081     A.U. after    8 cycles
 SCF Done:  E(RB3LYP) =  -822.527758559     A.U. after    8 cycles
 SCF Done:  E(RB3LYP) =  -822.527758820     A.U. after    8 cycles
 SCF Done:  E(RB3LYP) =  -822.527759097     A.U. after    9 cycles
 Optimization completed.
    -- Stationary point found.
 Normal termination of Gaussian 16 at Fri Jun 10 12:28:04 2022.

 --------------------------------------------------------------------
 #N Geom=AllCheck Guess=TCheck SCRF=Check GenChk RB3LYP/def2TZVP Freq
 --------------------------------------------------------------------

 Structure from the checkpoint file:  "checkpoint.chk"
 ------------------
 int_zmat_initalOpt
 ------------------
 Charge =  0 Multiplicity = 1

                          Input orientation:
 ---------------------------------------------------------------------
 Center     Atomic      Atomic             Coordinates (Angstroms)
 Number     Number       Type             X           Y           Z
 ---------------------------------------------------------------------
      1          6           0        0.000000    0.000000    0.000000
      2          6           0        0.000000    0.000000    1.388511
      3         16           0        1.605853    0.000000   -0.851680
      4          6           0       -1.190201   -0.071252   -0.716315
      5          6           0        1.606605    1.816044   -1.293766
      6          8           0        2.639905   -0.173017    0.196373
      7          1           0        0.948449    0.020309    1.910825
      8          6           0       -1.212329   -0.048857    2.068666
      9          6           0       -2.397949   -0.116590   -0.030128
     10          1           0       -1.174824   -0.107227   -1.799867
     11          6           0        2.825930    2.144277   -2.083272
     12          1           0        0.682874    1.993768   -1.849099
     13          1           0        1.573925    2.339585   -0.337434
     14          1           0       -1.218829   -0.053413    3.151586
     15          6           0       -2.409468   -0.103198    1.362203
     16          1           0       -3.328656   -0.176208   -0.581813
     17          6           0        3.910030    2.713631   -1.569590
     18          1           0        2.818589    1.851149   -3.128830
     19          1           0       -3.350851   -0.151376    1.896195
     20          1           0        4.787285    2.904773   -2.173318
     21          1           0        3.964475    2.995205   -0.524824
 ---------------------------------------------------------------------

 SCF Done:  E(RB3LYP) =  -822.527759097     A.U. after    1 cycles

 Isotropic polarizability for W=    0.000000      131.46 Bohr**3.
 End of Minotr F.D. properties file   721 does not exist.

                      1                      2                      3
                      A                      A                      A
 Frequencies --     42.1728                54.0397                72.6341
 Red. masses --      4.3782                 3.1081                 3.3227
 Frc consts  --      0.0046                 0.0053                 0.0103
 IR Inten    --      0.7415                 0.1424                 2.2442

                      4                      5                      6
                      A                      A                      A
 Frequencies --     94.0104               190.8316               214.9769
 Red. masses --      3.3195                 5.6002                 3.6519
 Frc consts  --      0.0173                 0.1202                 0.0994
 IR Inten    --      0.6252                 4.5902                 1.3654

                      7                      8                      9
                      A                      A                      A
 Frequencies --    256.6973               310.3185               366.0124
 Red. masses --      3.4219                 5.5373                 4.9347
 Frc consts  --      0.1328                 0.3142                 0.3895
 IR Inten    --      0.2661                 2.6815                 5.3080

                     10                     11                     12
                      A                      A                      A
 Frequencies --    411.7249               418.3066               470.6530
 Red. masses --      2.9406                 2.0045                 4.4483
 Frc consts  --      0.2937                 0.2067                 0.5806
 IR Inten    --      0.1914                 2.9094                 8.8133

                     13                     14                     15
                      A                      A                      A
 Frequencies --    509.9312               539.1884               629.7268
 Red. masses --      5.0343                 2.6699                 6.4208
 Frc consts  --      0.7713                 0.4573                 1.5002
 IR Inten    --     14.3529                35.9956                 0.0486

                     16                     17                     18
                      A                      A                      A
 Frequencies --    695.8981               703.3709               728.2060
 Red. masses --      5.6950                 2.3974                 1.9011
 Frc consts  --      1.6249                 0.6988                 0.5940
 IR Inten    --      0.7808                30.1064                 8.8105

                     19                     20                     21
                      A                      A                      A
 Frequencies --    762.9341               861.4789               875.8303
 Red. masses --      1.7549                 1.2503                 1.5294
 Frc consts  --      0.6018                 0.5467                 0.6912
 IR Inten    --     35.8189                 0.3057                 7.0962

                     22                     23                     24
                      A                      A                      A
 Frequencies --    928.1701               951.0352               951.2458
 Red. masses --      1.4043                 1.2727                 2.1379
 Frc consts  --      0.7128                 0.6782                 1.1398
 IR Inten    --      1.1432                 0.0224                 1.2856

                     25                     26                     27
                      A                      A                      A
 Frequencies --    984.2024               998.7471              1017.6657
 Red. masses --      1.3026                 1.3189                 5.9131
 Frc consts  --      0.7434                 0.7751                 3.6081
 IR Inten    --     42.9202                 0.3873                 0.3538

                     28                     29                     30
                      A                      A                      A
 Frequencies --   1019.1608              1044.2817              1075.2082
 Red. masses --      1.1321                 2.7499                 1.4238
 Frc consts  --      0.6928                 1.7669                 0.9698
 IR Inten    --      9.6117                 6.9153                13.6038

                     31                     32                     33
                      A                      A                      A
 Frequencies --   1081.1853              1096.6186              1130.9112
 Red. masses --      2.7547                 1.7373                 6.3834
 Frc consts  --      1.8972                 1.2309                 4.8102
 IR Inten    --     11.5658                 8.3355                80.4222

                     34                     35                     36
                      A                      A                      A
 Frequencies --   1179.4888              1195.7692              1210.5603
 Red. masses --      1.1260                 1.1620                 1.3835
 Frc consts  --      0.9230                 0.9789                 1.1945
 IR Inten    --      0.0524                 1.6014                 0.6260

                     37                     38                     39
                      A                      A                      A
 Frequencies --   1224.1264              1326.4437              1334.9307
 Red. masses --      1.3183                 3.0457                 1.2496
 Frc consts  --      1.1639                 3.1573                 1.3120
 IR Inten    --      5.2474                 0.3053                 3.4235

                     40                     41                     42
                      A                      A                      A
 Frequencies --   1348.5062              1437.5948              1467.7643
 Red. masses --      1.7695                 1.1112                 1.1915
 Frc consts  --      1.8959                 1.3530                 1.5124
 IR Inten    --      2.9612                 5.0442                 7.0341

                     43                     44                     45
                      A                      A                      A
 Frequencies --   1476.4447              1512.6307              1622.4496
 Red. masses --      2.1279                 2.0253                 5.6398
 Frc consts  --      2.7329                 2.7303                 8.7469
 IR Inten    --      9.5466                10.1019                 1.6777

                     46                     47                     48
                      A                      A                      A
 Frequencies --   1625.6427              1700.5274              3040.1441
 Red. masses --      5.2707                 4.3117                 1.0571
 Frc consts  --      8.2067                 7.3462                 5.7564
 IR Inten    --      7.4949                 2.9976                14.2267

                     49                     50                     51
                      A                      A                      A
 Frequencies --   3105.4199              3142.7601              3148.8103
 Red. masses --      1.1060                 1.0748                 1.0759
 Frc consts  --      6.2842                 6.2544                 6.2850
 IR Inten    --      3.3191                11.7549                 1.8851

                     52                     53                     54
                      A                      A                      A
 Frequencies --   3152.8815              3163.7972              3174.2739
 Red. masses --      1.0846                 1.0884                 1.0917
 Frc consts  --      6.3524                 6.4189                 6.4808
 IR Inten    --      0.9465                 6.4060                31.0378

                     55                     56                     57
                      A                      A                      A
 Frequencies --   3183.7058              3192.9409              3232.6812
 Red. masses --      1.0934                 1.0947                 1.1164
 Frc consts  --      6.5297                 6.5752                 6.8736
 IR Inten    --     16.4460                20.1297                 4.0901

 - Thermochemistry -
 -------------------
 Temperature   298.150 Kelvin.  Pressure   1.00000 Atm.
 Atom     1 has atomic number  6 and mass  12.00000

 Molecular mass:   166.04524 amu.
 Principal axes and moments of inertia in atomic units:
                           1         2         3
     Eigenvalues --   761.596043447.768383697.98871
           X            0.84404   0.52766  -0.09575
           Y            0.33056  -0.37130   0.86768
           Z           -0.42229   0.76401   0.48782
 This molecule is an asymmetric top.
 Rotational symmetry number  1.
 Warning -- assumption of classical behavior for rotation
           may cause significant error
 Rotational temperatures (Kelvin)      0.11373     0.02512     0.02342
 Rotational constants (GHZ):           2.36968     0.52345     0.48803
 Zero-point vibrational energy     434768.8 (Joules/Mol)
                                  103.91224 (Kcal/Mol)
 Warning -- explicit consideration of  14 degrees of freedom as
           vibrations may cause significant error
 Vibrational temperatures:     60.68    77.75   104.50   135.26   274.56
          (Kelvin)            309.30   369.33   446.48   526.61   592.38
                              601.85   677.16   733.68   775.77   906.04
                             1001.24  1011.99  1047.73  1097.69  1239.48
                             1260.12  1335.43  1368.33  1368.63  1416.05
                             1436.97  1464.19  1466.35  1502.49  1546.98
                             1555.58  1577.79  1627.13  1697.02  1720.45
                             1741.73  1761.24  1908.46  1920.67  1940.20
                             2068.38  2111.79  2124.27  2176.34  2334.34
                             2338.94  2446.68  4374.09  4468.01  4521.73
                             4530.44  4536.29  4552.00  4567.07  4580.64
                             4593.93  4651.11

 Zero-point correction=                           0.165595 (Hartree/Particle)
 Thermal correction to Energy=                    0.176455
 Thermal correction to Enthalpy=                  0.177399
 Thermal correction to Gibbs Free Energy=         0.127664
 Sum of electronic and zero-point Energies=           -822.362164
 Sum of electronic and thermal Energies=              -822.351304
 Sum of electronic and thermal Enthalpies=            -822.350360
 Sum of electronic and thermal Free Energies=         -822.400095

                     E (Thermal)             CV                S
                      KCal/Mol        Cal/Mol-Kelvin    Cal/Mol-Kelvin
 Total                  110.727             40.204            104.676
 Electronic               0.000              0.000              0.000
 Translational            0.889              2.981             41.230
 Rotational               0.889              2.981             30.652
 Vibrational            108.950             34.242             32.794
 Vibration     1          0.595              1.980              5.154
 Vibration     2          0.596              1.976              4.664
 Vibration     3          0.599              1.967              4.081
 Vibration     4          0.603              1.953              3.575
 Vibration     5          0.634              1.853              2.220
 Vibration     6          0.645              1.818              2.001
 Vibration     7          0.666              1.751              1.684
 Vibration     8          0.699              1.654              1.361
 Vibration     9          0.739              1.542              1.096
 Vibration    10          0.776              1.445              0.921
 Vibration    11          0.781              1.430              0.898
 Vibration    12          0.828              1.315              0.736
 Vibration    13          0.865              1.228              0.634
 Vibration    14          0.894              1.163              0.567

                       ! Non-Optimized Parameters !
 Normal termination of Gaussian 16 at Fri Jun 10 12:43:45 2022.
