 Gaussian 16, Revision A.03,
 Gaussian 16:  ES64L-G16RevA.03 25-Dec-2016

 --------------------------
 # sp B3LYP/Def2TZVP NoSymm
 --------------------------

 ---------------------------
 ts_initalOpt_zmat_AlignedSp
 ---------------------------
 Symbolic Z-matrix:
 Charge =  0 Multiplicity = 1

                          Input orientation:
 ---------------------------------------------------------------------
 Center     Atomic      Atomic             Coordinates (Angstroms)
 Number     Number       Type             X           Y           Z
 ---------------------------------------------------------------------
      1          6           0        0.000000    0.000000    0.000000
      2          6           0        0.000000    0.000000    1.392540
      3         16           0        1.520701    0.000000   -0.928467
      4          6           0       -1.205651   -0.034643   -0.703152
      5          8           0        2.651459    0.151903    0.099608
      6          1           0        0.943813    0.004224    1.921167
      7          6           0       -1.209172   -0.024693    2.078266
      8          6           0       -2.407201   -0.066522   -0.009304
      9          1           0       -1.203358   -0.035994   -1.787338
     10          1           0       -1.208993   -0.025425    3.161278
     11          6           0       -2.413226   -0.058384    1.383199
     12          1           0       -3.341392   -0.094618   -0.556136
     13          1           0       -3.351771   -0.081352    1.921863
     14          6           0        3.141115    2.132915    0.405133
     15          6           0        2.887021    2.587913   -0.880022
     16          1           0        4.151873    1.973356    0.751712
     17          1           0        2.384407    2.217650    1.171768
     18          6           0        1.598776    2.577764   -1.356697
     19          1           0        3.709423    2.634547   -1.585639
     20          1           0        1.383583    2.743110   -2.404171
     21          1           0        0.756111    2.639583   -0.681209
 ---------------------------------------------------------------------

 SCF Done:  E(RB3LYP) =  -822.501779210     A.U. after   19 cycles

 Alpha  occ. eigenvalues --  -88.91713 -19.13077 -10.20608 -10.20336 -10.19373
 Alpha  occ. eigenvalues --  -10.18931 -10.18677 -10.18571 -10.18400 -10.18313
 Alpha  occ. eigenvalues --  -10.17367  -7.98576  -5.94912  -5.94449  -5.94265
 Alpha  occ. eigenvalues --   -1.01607  -0.87174  -0.80661  -0.77637  -0.76002
 Alpha  occ. eigenvalues --   -0.69511  -0.66402  -0.61950  -0.58852  -0.56981
 Alpha  occ. eigenvalues --   -0.52541  -0.49392  -0.46975  -0.46504  -0.44885
 Alpha  occ. eigenvalues --   -0.43761  -0.43528  -0.42095  -0.39894  -0.39202
 Alpha  occ. eigenvalues --   -0.37834  -0.37245  -0.36563  -0.35712  -0.28604
 Alpha  occ. eigenvalues --   -0.28181  -0.26995  -0.26651  -0.21738
 Alpha virt. eigenvalues --   -0.06989  -0.02517  -0.01315   0.02087   0.02602
 Alpha virt. eigenvalues --    0.04370   0.05341   0.06742   0.07098   0.08031
 Alpha virt. eigenvalues --    0.09357   0.09834   0.11108   0.11790   0.12280

 Mulliken charges:
               1
     1  C    0.043849
     2  C   -0.166982
     3  S    0.317418
     4  C   -0.155898
     5  O   -0.441632
     6  H    0.146833
     7  C   -0.099001
     8  C   -0.108370
     9  H    0.105804
    10  H    0.113393
    11  C   -0.108446
    12  H    0.113053
    13  H    0.112739
    14  C   -0.146557
    15  C   -0.060541
    16  H    0.128206
    17  H    0.128958
    18  C   -0.301373
    19  H    0.102173
    20  H    0.128109
    21  H    0.148263
 Sum of Mulliken charges =  -0.00000

 Dipole moment (field-independent basis, Debye):
    X=             -1.6056    Y=              1.2271    Z=             -0.0786  Tot=              2.0223
 Quadrupole moment (field-independent basis, Debye-Ang):
   XX=            -70.1476   YY=            -75.9664   ZZ=            -66.0432
   XY=              3.3523   XZ=             -0.3139   YZ=             -0.7775

 1\1\GINC-BHC0029\SP\RB3LYP\def2TZVP\C9H10O1S1\DHANAWAY\10-Jun-2022\0\\
 # sp B3LYP/Def2TZVP NoSymm\\ts_initalOpt_zmat_AlignedSp\\0,1\C\C,1,1.3
 9254027\S,1,1.78173595,2,121.40622417\C,1,1.39614326,2,120.24103923,3,
 178.35413788,0\O,3,1.53578129,1,106.23472181,2,-5.9129448,0\H,2,1.0817
 7977,1,119.25279364,3,0.25641639,0\C,2,1.39029739,1,119.55261936,6,-17
 9.08652609,0\C,4,1.3878631,1,119.76281802,2,0.12574156,0\H,4,1.0841891
 3,1,120.12193676,8,179.9607912,0\H,7,1.08301212,2,119.54392103,1,179.9
 5523893,0\C,7,1.39068323,2,120.45901567,10,-179.52024283,0\H,8,1.08283

 Normal termination of Gaussian 16 at Fri Jun 10 11:17:18 2022.
