 Gaussian 16, Revision A.03,
 Gaussian 16:  ES64L-G16RevA.03 25-Dec-2016

 --------------------------
 # sp B3LYP/Def2TZVP NoSymm
 --------------------------

 ----------------------------
 int_initalOpt_zmat_AlignedSp
 ----------------------------
 Symbolic Z-matrix:
 Charge =  0 Multiplicity = 1

                          Input orientation:
 ---------------------------------------------------------------------
 Center     Atomic      Atomic             Coordinates (Angstroms)
 Number     Number       Type             X           Y           Z
 ---------------------------------------------------------------------
      1          6           0        0.000000    0.000000    0.000000
      2          6           0        0.000000    0.000000    1.388020
      3         16           0        1.588234    0.000000   -0.870921
      4          6           0       -1.190015   -0.069737   -0.717755
      5          6           0        1.571564    1.812604   -1.316976
      6          8           0        2.654956   -0.168710    0.151280
      7          1           0        0.946407    0.022345    1.913214
      8          6           0       -1.213415   -0.043699    2.066747
      9          6           0       -2.397924   -0.108800   -0.032393
     10          1           0       -1.177140   -0.104969   -1.801225
     11          6           0        2.758399    2.154566   -2.147205
     12          1           0        0.631214    1.981632   -1.845401
     13          1           0        1.560251    2.341949   -0.363509
     14          1           0       -1.222978   -0.043518    3.149488
     15          6           0       -2.409836   -0.093525    1.359644
     16          1           0       -3.328413   -0.160974   -0.583422
     17          6           0        3.826210    2.798366   -1.691048
     18          1           0        2.734573    1.823085   -3.181240
     19          1           0       -3.351957   -0.131849    1.891567
     20          1           0        4.672927    3.010637   -2.330828
     21          1           0        3.891804    3.131514   -0.662162
 ---------------------------------------------------------------------

 SCF Done:  E(RB3LYP) =  -822.532461625     A.U. after   19 cycles

 Alpha  occ. eigenvalues --  -88.95480 -19.09026 -10.20812 -10.20798 -10.19748
 Alpha  occ. eigenvalues --  -10.19298 -10.19115 -10.19062 -10.18982 -10.18896
 Alpha  occ. eigenvalues --  -10.17660  -8.01870  -5.98086  -5.98052  -5.97519
 Alpha  occ. eigenvalues --   -1.01956  -0.87836  -0.81831  -0.78098  -0.76632
 Alpha  occ. eigenvalues --   -0.72752  -0.65816  -0.62607  -0.59531  -0.57046
 Alpha  occ. eigenvalues --   -0.53459  -0.49183  -0.47732  -0.47307  -0.45538
 Alpha  occ. eigenvalues --   -0.45298  -0.44145  -0.42551  -0.40825  -0.39363
 Alpha  occ. eigenvalues --   -0.37521  -0.37265  -0.36365  -0.35926  -0.29535
 Alpha  occ. eigenvalues --   -0.28027  -0.27448  -0.27277  -0.23423
 Alpha virt. eigenvalues --   -0.04323  -0.02998  -0.01336   0.02373   0.03052
 Alpha virt. eigenvalues --    0.03964   0.05443   0.06638   0.07132   0.08058
 Alpha virt. eigenvalues --    0.08873   0.10254   0.10883   0.11217   0.11937

 Mulliken charges:
               1
     1  C    0.070720
     2  C   -0.167881
     3  S    0.484719
     4  C   -0.180678
     5  C   -0.226629
     6  O   -0.544789
     7  H    0.145808
     8  C   -0.089851
     9  C   -0.105335
    10  H    0.108508
    11  C   -0.100910
    12  H    0.121100
    13  H    0.130688
    14  H    0.118350
    15  C   -0.103614
    16  H    0.116119
    17  C   -0.237116
    18  H    0.113812
    19  H    0.116331
    20  H    0.116872
    21  H    0.113776
 Sum of Mulliken charges =  -0.00000

 Dipole moment (field-independent basis, Debye):
    X=             -3.1091    Y=              1.6177    Z=             -1.0371  Tot=              3.6550
 Quadrupole moment (field-independent basis, Debye-Ang):
   XX=            -75.4530   YY=            -73.9019   ZZ=            -64.9064
   XY=              5.3507   XZ=             -3.7639   YZ=             -1.1169

 1\1\GINC-BHC0026\SP\RB3LYP\def2TZVP\C9H10O1S1\DHANAWAY\10-Jun-2022\0\\
 # sp B3LYP/Def2TZVP NoSymm\\int_initalOpt_zmat_AlignedSp\\0,1\C\C,1,1.
 38801951\S,1,1.81135,2,118.73852014\C,1,1.3914642,2,121.05276917,3,176
 .646226,0\C,3,1.86675567,1,96.14580669,2,-102.41806948,0\O,3,1.4870287
 1,1,107.3659775,5,109.24511598,0\H,2,1.08259674,1,119.02066106,3,1.352
 5496,0\C,2,1.39102727,1,119.20478709,7,-179.290048,0\C,4,1.38934922,1,
 119.37287167,2,1.49874769,0\H,4,1.08411881,1,120.46357519,9,-179.29548
 509,0\C,5,1.4882187,3,110.44410073,1,-176.70702288,0\H,5,1.09181579,3,

 Normal termination of Gaussian 16 at Fri Jun 10 11:16:06 2022.
