 Gaussian 16, Revision A.03,
 Gaussian 16:  ES64L-G16RevA.03 25-Dec-2016

 ----------------------------------------------------------------------
 # Opt=(TS, CalcFC, noeigentest, Z-matrix, MaxStep=10) geom=allcheckpoi
 nt guess=read Field=read NoSymm B3LYP/Def2TZVP freq=noraman pop=none
 ----------------------------------------------------------------------

 Structure from the checkpoint file:  "checkpoint.chk"
 -----------------
 ts_zmat_initalOpt
 -----------------
 Charge =  0 Multiplicity = 1

 SCF Done:  E(RB3LYP) =  -822.502394316     A.U. after   12 cycles
 SCF Done:  E(RB3LYP) =  -822.502432465     A.U. after   12 cycles
 SCF Done:  E(RB3LYP) =  -822.502434850     A.U. after   10 cycles
 SCF Done:  E(RB3LYP) =  -822.502434945     A.U. after    8 cycles
 Optimization completed.
    -- Stationary point found.
 Normal termination of Gaussian 16 at Fri Jun 10 13:24:24 2022.

 --------------------------------------------------------------------
 #N Geom=AllCheck Guess=TCheck SCRF=Check GenChk RB3LYP/def2TZVP Freq
 --------------------------------------------------------------------

 Structure from the checkpoint file:  "checkpoint.chk"
 -----------------
 ts_zmat_initalOpt
 -----------------
 Charge =  0 Multiplicity = 1

                          Input orientation:
 ---------------------------------------------------------------------
 Center     Atomic      Atomic             Coordinates (Angstroms)
 Number     Number       Type             X           Y           Z
 ---------------------------------------------------------------------
      1          6           0        0.000000    0.000000    0.000000
      2          6           0        0.000000    0.000000    1.394652
      3         16           0        1.526285    0.000000   -0.920153
      4          6           0       -1.211836   -0.019812   -0.696143
      5          8           0        2.641395   -0.043910    0.118936
      6          1           0        0.947835   -0.010542    1.916561
      7          6           0       -1.206214   -0.014738    2.084525
      8          6           0       -2.411353   -0.037514    0.001215
      9          1           0       -1.210252   -0.025536   -1.780409
     10          1           0       -1.198353   -0.019301    3.168245
     11          6           0       -2.415197   -0.032384    1.394909
     12          1           0       -3.347047   -0.056739   -0.546263
     13          1           0       -3.352962   -0.049075    1.938272
     14          6           0        3.414717    1.918108    0.498404
     15          6           0        3.133273    2.427764   -0.754398
     16          1           0        4.418368    1.629106    0.774675
     17          1           0        2.703375    2.019113    1.305466
     18          6           0        1.822609    2.559859   -1.154535
     19          1           0        3.918263    2.435013   -1.501874
     20          1           0        1.569625    2.798995   -2.179031
     21          1           0        1.031650    2.673893   -0.424201
 ---------------------------------------------------------------------

 SCF Done:  E(RB3LYP) =  -822.502434945     A.U. after    1 cycles

 Isotropic polarizability for W=    0.000000      146.84 Bohr**3.
 End of Minotr F.D. properties file   721 does not exist.

 ******    1 imaginary frequencies (negative Signs) ******

                      1                      2                      3
                      A                      A                      A
 Frequencies --   -249.0378                53.7481                63.5051
 Red. masses --      6.3677                 3.8683                 5.1110
 Frc consts  --      0.2327                 0.0066                 0.0121
 IR Inten    --     33.1672                 0.1811                 1.2242

                      4                      5                      6
                      A                      A                      A
 Frequencies --     91.5420               185.3427               208.5654
 Red. masses --      2.9713                 4.8043                 5.6032
 Frc consts  --      0.0147                 0.0972                 0.1436
 IR Inten    --      0.3829                 3.9244                 5.8568

                      7                      8                      9
                      A                      A                      A
 Frequencies --    241.7942               316.5528               371.8957
 Red. masses --      7.2611                 5.0767                 2.4607
 Frc consts  --      0.2501                 0.2997                 0.2005
 IR Inten    --      5.4511                 3.6543                 1.9389

                     10                     11                     12
                      A                      A                      A
 Frequencies --    398.7983               412.1378               448.9650
 Red. masses --      7.9514                 3.0540                 1.9175
 Frc consts  --      0.7451                 0.3056                 0.2277
 IR Inten    --      5.9846                 0.2266                 3.3648

                     13                     14                     15
                      A                      A                      A
 Frequencies --    479.8861               487.1498               630.0162
 Red. masses --      8.2343                 3.8519                 6.4043
 Frc consts  --      1.1173                 0.5386                 1.4977
 IR Inten    --      9.2718                10.1965                 0.0670

                     16                     17                     18
                      A                      A                      A
 Frequencies --    689.3904               690.1720               704.3465
 Red. masses --      1.6613                 2.0571                 6.3060
 Frc consts  --      0.4652                 0.5773                 1.8432
 IR Inten    --      0.6102                23.2742                 8.0143

                     19                     20                     21
                      A                      A                      A
 Frequencies --    737.2092               784.0933               850.2458
 Red. masses --      1.4006                 1.0936                 1.2612
 Frc consts  --      0.4485                 0.3961                 0.5372
 IR Inten    --     45.8776                 1.8372                 0.0054

                     22                     23                     24
                      A                      A                      A
 Frequencies --    891.6650               915.9421               931.7459
 Red. masses --      1.3429                 1.7085                 1.2466
 Frc consts  --      0.6291                 0.8445                 0.6377
 IR Inten    --      0.9704                31.2594                 1.7221

                     25                     26                     27
                      A                      A                      A
 Frequencies --    944.6910               972.9643               977.9584
 Red. masses --      1.1492                 1.7772                 1.3050
 Frc consts  --      0.6043                 0.9912                 0.7354
 IR Inten    --      0.4959                25.6484                 0.2044

                     28                     29                     30
                      A                      A                      A
 Frequencies --   1012.7740              1030.5324              1040.1829
 Red. masses --      6.0810                 1.1439                 1.7996
 Frc consts  --      3.6749                 0.7158                 1.1472
 IR Inten    --      3.7941                35.6816                15.3257

                     31                     32                     33
                      A                      A                      A
 Frequencies --   1043.4698              1062.1363              1087.5685
 Red. masses --      2.3624                 1.8428                 2.9378
 Frc consts  --      1.5155                 1.2249                 2.0473
 IR Inten    --      7.3437                12.7969                13.2296

                     34                     35                     36
                      A                      A                      A
 Frequencies --   1097.7012              1174.0067              1196.0107
 Red. masses --      1.7362                 1.1120                 1.1715
 Frc consts  --      1.2326                 0.9030                 0.9874
 IR Inten    --      4.5725                 0.6926                 0.2312

                     37                     38                     39
                      A                      A                      A
 Frequencies --   1278.7193              1289.9730              1320.9253
 Red. masses --      1.3446                 2.1491                 3.0916
 Frc consts  --      1.2954                 2.1070                 3.1783
 IR Inten    --     10.3983                 1.6713                 1.7710

                     40                     41                     42
                      A                      A                      A
 Frequencies --   1351.5313              1441.5851              1471.9897
 Red. masses --      1.7835                 1.2335                 2.1704
 Frc consts  --      1.9195                 1.5103                 2.7707
 IR Inten    --      0.6284                22.4248                 6.2803

                     43                     44                     45
                      A                      A                      A
 Frequencies --   1508.9115              1535.5133              1582.6900
 Red. masses --      1.9906                 1.3842                 2.6447
 Frc consts  --      2.6703                 1.9229                 3.9032
 IR Inten    --     26.2369                 7.7787                51.8910

                     46                     47                     48
                      A                      A                      A
 Frequencies --   1610.3773              1622.2556              3143.1552
 Red. masses --      5.4172                 5.1712                 1.0597
 Frc consts  --      8.2772                 8.0183                 6.1684
 IR Inten    --      2.3314                48.5278                 8.7336

                     49                     50                     51
                      A                      A                      A
 Frequencies --   3143.2876              3156.8944              3165.8092
 Red. masses --      1.0802                 1.0876                 1.0576
 Frc consts  --      6.2881                 6.3864                 6.2453
 IR Inten    --      2.3013                17.2721                 7.1201

                     52                     53                     54
                      A                      A                      A
 Frequencies --   3166.9480              3169.0028              3175.2720
 Red. masses --      1.0918                 1.0903                 1.0956
 Frc consts  --      6.4519                 6.4510                 6.5083
 IR Inten    --     30.5302                 1.5015                48.7950

                     55                     56                     57
                      A                      A                      A
 Frequencies --   3197.2332              3231.9921              3258.7352
 Red. masses --      1.0920                 1.1162                 1.1182
 Frc consts  --      6.5766                 6.8698                 6.9962
 IR Inten    --      6.4104                 3.7185                 1.9785

 - Thermochemistry -
 -------------------
 Temperature   298.150 Kelvin.  Pressure   1.00000 Atm.
 Atom     1 has atomic number  6 and mass  12.00000

 Molecular mass:   166.04524 amu.
 Principal axes and moments of inertia in atomic units:
                           1         2         3
     Eigenvalues --   881.196003106.382193269.42773
           X            0.90982   0.29293  -0.29396
           Y            0.32204  -0.05160   0.94532
           Z           -0.26175   0.95474   0.14128
 This molecule is an asymmetric top.
 Rotational symmetry number  1.
 Warning -- assumption of classical behavior for rotation
           may cause significant error
 Rotational temperatures (Kelvin)      0.09829     0.02788     0.02649
 Rotational constants (GHZ):           2.04806     0.58098     0.55201
    1 imaginary frequencies ignored.
 Zero-point vibrational energy     430939.8 (Joules/Mol)
                                  102.99708 (Kcal/Mol)
 Warning -- explicit consideration of  13 degrees of freedom as
           vibrations may cause significant error
 Vibrational temperatures:     77.33    91.37   131.71   266.67   300.08
          (Kelvin)            347.89   455.45   535.07   573.78   592.97
                              645.96   690.45   700.90   906.45   991.88
                              993.00  1013.40  1060.68  1128.14  1223.31
                             1282.91  1317.84  1340.57  1359.20  1399.88
                             1407.06  1457.16  1482.71  1496.59  1501.32
                             1528.18  1564.77  1579.35  1689.13  1720.79
                             1839.79  1855.98  1900.52  1944.55  2074.12
                             2117.86  2170.99  2209.26  2277.14  2316.97
                             2334.06  4522.30  4522.49  4542.07  4554.89
                             4556.53  4559.49  4568.51  4600.11  4650.12
                             4688.59

 Zero-point correction=                           0.164136 (Hartree/Particle)
 Thermal correction to Energy=                    0.174403
 Thermal correction to Enthalpy=                  0.175348
 Thermal correction to Gibbs Free Energy=         0.127565
 Sum of electronic and zero-point Energies=           -822.338299
 Sum of electronic and thermal Energies=              -822.328032
 Sum of electronic and thermal Enthalpies=            -822.327087
 Sum of electronic and thermal Free Energies=         -822.374869

                     E (Thermal)             CV                S
                      KCal/Mol        Cal/Mol-Kelvin    Cal/Mol-Kelvin
 Total                  109.440             39.285            100.566
 Electronic               0.000              0.000              0.000
 Translational            0.889              2.981             41.230
 Rotational               0.889              2.981             30.571
 Vibrational            107.662             33.324             28.765
 Vibration     1          0.596              1.976              4.674
 Vibration     2          0.597              1.972              4.345
 Vibration     3          0.602              1.955              3.627
 Vibration     4          0.631              1.860              2.274
 Vibration     5          0.642              1.828              2.056
 Vibration     6          0.658              1.776              1.790
 Vibration     7          0.703              1.642              1.328
 Vibration     8          0.744              1.530              1.072
 Vibration     9          0.765              1.473              0.967
 Vibration    10          0.776              1.444              0.919
 Vibration    11          0.808              1.363              0.799
 Vibration    12          0.836              1.295              0.710
 Vibration    13          0.843              1.279              0.691

 Optimization completed.
    -- Stationary point found.
 Normal termination of Gaussian 16 at Fri Jun 10 13:42:37 2022.
