 Gaussian 16, Revision A.03,
 Gaussian 16:  ES64L-G16RevA.03 25-Dec-2016

 ----------------------------------------------------------------------
 # Opt=(TS, CalcFC, noeigentest, Z-matrix, MaxStep=10) geom=allcheckpoi
 nt guess=read Field=read NoSymm B3LYP/Def2TZVP freq=noraman pop=none
 ----------------------------------------------------------------------

 Structure from the checkpoint file:  "checkpoint.chk"
 -----------------
 ts_zmat_initalOpt
 -----------------
 Charge =  0 Multiplicity = 1

 SCF Done:  E(RB3LYP) =  -822.500986388     A.U. after   12 cycles
 SCF Done:  E(RB3LYP) =  -822.501009880     A.U. after   13 cycles
 SCF Done:  E(RB3LYP) =  -822.501010258     A.U. after    8 cycles
 Optimization completed.
    -- Stationary point found.
 Normal termination of Gaussian 16 at Fri Jun 10 12:35:58 2022.

 --------------------------------------------------------------------
 #N Geom=AllCheck Guess=TCheck SCRF=Check GenChk RB3LYP/def2TZVP Freq
 --------------------------------------------------------------------

 Structure from the checkpoint file:  "checkpoint.chk"
 -----------------
 ts_zmat_initalOpt
 -----------------
 Charge =  0 Multiplicity = 1

                          Input orientation:
 ---------------------------------------------------------------------
 Center     Atomic      Atomic             Coordinates (Angstroms)
 Number     Number       Type             X           Y           Z
 ---------------------------------------------------------------------
      1          6           0        0.000000    0.000000    0.000000
      2          6           0        0.000000    0.000000    1.393702
      3         16           0        1.525167    0.000000   -0.922086
      4          6           0       -1.209293   -0.026266   -0.698880
      5          8           0        2.645745    0.033050    0.116988
      6          1           0        0.946393   -0.004802    1.918003
      7          6           0       -1.207358   -0.018908    2.082030
      8          6           0       -2.409597   -0.049613   -0.002921
      9          1           0       -1.207190   -0.030710   -1.783107
     10          1           0       -1.202261   -0.022281    3.165486
     11          6           0       -2.414318   -0.043188    1.390266
     12          1           0       -3.344585   -0.072820   -0.550319
     13          1           0       -3.352346   -0.062576    1.931802
     14          6           0        3.302840    2.007791    0.472688
     15          6           0        3.033742    2.496442   -0.793262
     16          1           0        4.310862    1.768779    0.778804
     17          1           0        2.571682    2.101495    1.262735
     18          6           0        1.730654    2.571353   -1.227135
     19          1           0        3.835543    2.520156   -1.522513
     20          1           0        1.493607    2.781173   -2.261824
     21          1           0        0.916588    2.664080   -0.520016
 ---------------------------------------------------------------------

 SCF Done:  E(RB3LYP) =  -822.501010258     A.U. after    1 cycles

 Isotropic polarizability for W=    0.000000      145.20 Bohr**3.
 End of Minotr F.D. properties file   721 does not exist.

 ******    1 imaginary frequencies (negative Signs) ******

                      1                      2                      3
                      A                      A                      A
 Frequencies --   -259.5650                53.1060                64.8874
 Red. masses --      6.6448                 3.9173                 5.0874
 Frc consts  --      0.2638                 0.0065                 0.0126
 IR Inten    --     33.0115                 0.1601                 0.7060

                      4                      5                      6
                      A                      A                      A
 Frequencies --     94.1131               186.5992               210.8471
 Red. masses --      2.9356                 4.8268                 5.5300
 Frc consts  --      0.0153                 0.0990                 0.1448
 IR Inten    --      0.2501                 3.4215                 5.4607

                      7                      8                      9
                      A                      A                      A
 Frequencies --    242.2647               316.6154               376.0462
 Red. masses --      7.3291                 4.9720                 2.4595
 Frc consts  --      0.2534                 0.2937                 0.2049
 IR Inten    --      4.7387                 3.0067                 1.9788

                     10                     11                     12
                      A                      A                      A
 Frequencies --    402.3484               412.0680               451.2597
 Red. masses --      7.6037                 3.0376                 1.9391
 Frc consts  --      0.7252                 0.3039                 0.2326
 IR Inten    --      5.8715                 0.2739                 3.7886

                     13                     14                     15
                      A                      A                      A
 Frequencies --    478.2672               490.3787               630.2600
 Red. masses --      7.1282                 4.1095                 6.4178
 Frc consts  --      0.9607                 0.5822                 1.5020
 IR Inten    --      9.9878                 9.8328                 0.0311

                     16                     17                     18
                      A                      A                      A
 Frequencies --    692.5443               699.4440               705.4958
 Red. masses --      1.3439                 2.5339                 6.0021
 Frc consts  --      0.3798                 0.7304                 1.7601
 IR Inten    --      7.8809                20.3372                 7.2421

                     19                     20                     21
                      A                      A                      A
 Frequencies --    747.1504               794.3394               855.3931
 Red. masses --      1.5079                 1.0972                 1.2559
 Frc consts  --      0.4959                 0.4079                 0.5414
 IR Inten    --     42.9064                 1.2777                 0.0438

                     22                     23                     24
                      A                      A                      A
 Frequencies --    905.2735               912.2035               944.0169
 Red. masses --      1.4637                 1.7484                 1.1517
 Frc consts  --      0.7067                 0.8572                 0.6047
 IR Inten    --      1.9327                31.3562                 0.7670

                     25                     26                     27
                      A                      A                      A
 Frequencies --    944.1574               969.6111               980.5855
 Red. masses --      1.2411                 1.7040                 1.2995
 Frc consts  --      0.6519                 0.9439                 0.7362
 IR Inten    --      0.2821                22.7891                 0.2754

                     28                     29                     30
                      A                      A                      A
 Frequencies --   1014.1772              1027.6581              1040.8187
 Red. masses --      6.0913                 1.1665                 1.6624
 Frc consts  --      3.6914                 0.7258                 1.0610
 IR Inten    --      1.2841                37.0768                14.9375

                     31                     32                     33
                      A                      A                      A
 Frequencies --   1044.6962              1061.4358              1089.3286
 Red. masses --      2.3690                 1.8386                 2.9129
 Frc consts  --      1.5233                 1.2204                 2.0366
 IR Inten    --      5.8422                11.8542                 8.1109

                     34                     35                     36
                      A                      A                      A
 Frequencies --   1099.2262              1177.3017              1197.5060
 Red. masses --      1.7288                 1.1178                 1.1687
 Frc consts  --      1.2308                 0.9128                 0.9874
 IR Inten    --      3.9213                 0.4730                 0.3046

                     37                     38                     39
                      A                      A                      A
 Frequencies --   1276.9564              1290.7384              1321.2386
 Red. masses --      1.3710                 2.0914                 3.2210
 Frc consts  --      1.3172                 2.0529                 3.3128
 IR Inten    --      9.0301                 1.8290                 1.5331

                     40                     41                     42
                      A                      A                      A
 Frequencies --   1351.7538              1441.7809              1473.8922
 Red. masses --      1.7374                 1.2373                 2.1529
 Frc consts  --      1.8704                 1.5154                 2.7555
 IR Inten    --      0.8250                20.5316                 6.8095

                     43                     44                     45
                      A                      A                      A
 Frequencies --   1510.3963              1535.3346              1583.1928
 Red. masses --      1.9952                 1.3799                 2.6289
 Frc consts  --      2.6818                 1.9165                 3.8823
 IR Inten    --     23.8527                 7.1026                41.9391

                     46                     47                     48
                      A                      A                      A
 Frequencies --   1613.1992              1624.1281              3145.8298
 Red. masses --      5.4288                 5.1864                 1.0563
 Frc consts  --      8.3239                 8.0604                 6.1587
 IR Inten    --      2.2453                34.4157                 7.2971

                     49                     50                     51
                      A                      A                      A
 Frequencies --   3151.8630              3161.7730              3164.9991
 Red. masses --      1.0841                 1.0876                 1.0790
 Frc consts  --      6.3451                 6.4058                 6.3682
 IR Inten    --      1.2292                 4.2500                 4.6631

                     52                     53                     54
                      A                      A                      A
 Frequencies --   3165.7517              3170.9025              3181.8352
 Red. masses --      1.0682                 1.0919                 1.0957
 Frc consts  --      6.3076                 6.4685                 6.5359
 IR Inten    --      4.7566                28.4404                39.0455

                     55                     56                     57
                      A                      A                      A
 Frequencies --   3198.5111              3233.5686              3257.1260
 Red. masses --      1.0922                 1.1165                 1.1181
 Frc consts  --      6.5833                 6.8782                 6.9888
 IR Inten    --      6.7903                 3.8731                 1.9449

 - Thermochemistry -
 -------------------
 Temperature   298.150 Kelvin.  Pressure   1.00000 Atm.
 Atom     1 has atomic number  6 and mass  12.00000

 Molecular mass:   166.04524 amu.
 Principal axes and moments of inertia in atomic units:
                           1         2         3
     Eigenvalues --   891.402893074.041213232.92454
           X            0.90206   0.30890  -0.30145
           Y            0.33564  -0.06295   0.93988
           Z           -0.27135   0.94901   0.16046
 This molecule is an asymmetric top.
 Rotational symmetry number  1.
 Warning -- assumption of classical behavior for rotation
           may cause significant error
 Rotational temperatures (Kelvin)      0.09717     0.02818     0.02679
 Rotational constants (GHZ):           2.02461     0.58709     0.55824
    1 imaginary frequencies ignored.
 Zero-point vibrational energy     431649.7 (Joules/Mol)
                                  103.16676 (Kcal/Mol)
 Warning -- explicit consideration of  13 degrees of freedom as
           vibrations may cause significant error
 Vibrational temperatures:     76.41    93.36   135.41   268.47   303.36
          (Kelvin)            348.56   455.54   541.05   578.89   592.87
                              649.26   688.12   705.55   906.80   996.42
                             1006.34  1015.05  1074.98  1142.88  1230.72
                             1302.49  1312.46  1358.23  1358.43  1395.05
                             1410.84  1459.17  1478.57  1497.51  1503.08
                             1527.17  1567.30  1581.54  1693.87  1722.94
                             1837.26  1857.08  1900.97  1944.87  2074.40
                             2120.60  2173.12  2209.00  2277.86  2321.03
                             2336.76  4526.15  4534.83  4549.09  4553.73
                             4554.81  4562.22  4577.95  4601.94  4652.38
                             4686.28

 Zero-point correction=                           0.164407 (Hartree/Particle)
 Thermal correction to Energy=                    0.174632
 Thermal correction to Enthalpy=                  0.175576
 Thermal correction to Gibbs Free Energy=         0.127895
 Sum of electronic and zero-point Energies=           -822.336604
 Sum of electronic and thermal Energies=              -822.326378
 Sum of electronic and thermal Enthalpies=            -822.325434
 Sum of electronic and thermal Free Energies=         -822.373116

                     E (Thermal)             CV                S
                      KCal/Mol        Cal/Mol-Kelvin    Cal/Mol-Kelvin
 Total                  109.583             39.148            100.354
 Electronic               0.000              0.000              0.000
 Translational            0.889              2.981             41.230
 Rotational               0.889              2.981             30.561
 Vibrational            107.806             33.186             28.564
 Vibration     1          0.596              1.976              4.698
 Vibration     2          0.597              1.971              4.303
 Vibration     3          0.603              1.953              3.573
 Vibration     4          0.632              1.858              2.261
 Vibration     5          0.643              1.824              2.036
 Vibration     6          0.658              1.776              1.786
 Vibration     7          0.703              1.642              1.328
 Vibration     8          0.747              1.521              1.055
 Vibration     9          0.768              1.465              0.954
 Vibration    10          0.776              1.444              0.919
 Vibration    11          0.810              1.358              0.792
 Vibration    12          0.835              1.298              0.715
 Vibration    13          0.846              1.271              0.683

 Optimization completed.
    -- Stationary point found.
 Normal termination of Gaussian 16 at Fri Jun 10 12:52:44 2022.
