 Gaussian 16, Revision A.03,
 Gaussian 16:  ES64L-G16RevA.03 25-Dec-2016

 ------------------------------------------
 # Opt B3LYP/Def2TZVP freq=noraman pop=none
 ------------------------------------------

 -------------
 int_initalOpt
 -------------
 Symbolic Z-matrix:
 Charge =  0 Multiplicity = 1

 SCF Done:  E(RB3LYP) =  -269.422511161     A.U. after   13 cycles
 Optimization completed.
    -- Stationary point found.
 Normal termination of Gaussian 16 at Fri Jun 10 21:54:32 2022.

 --------------------------------------------------------------------
 #N Geom=AllCheck Guess=TCheck SCRF=Check GenChk RB3LYP/def2TZVP Freq
 --------------------------------------------------------------------

 Structure from the checkpoint file:  "checkpoint.chk"
 -------------
 int_initalOpt
 -------------
 Charge =  0 Multiplicity = 1

                         Standard orientation:
 ---------------------------------------------------------------------
 Center     Atomic      Atomic             Coordinates (Angstroms)
 Number     Number       Type             X           Y           Z
 ---------------------------------------------------------------------
      1          1           0        1.963283    1.472073   -0.306293
      2          6           0        1.078208    0.888465   -0.089212
      3          6           0       -0.148219    1.419024   -0.059668
      4          1           0       -0.310509    2.472820   -0.249872
      5          6           0       -1.294046    0.547971    0.143988
      6          1           0       -2.286850    0.943778    0.297709
      7          6           0       -1.118722   -0.772584   -0.015022
      8          1           0       -1.922679   -1.496064   -0.057151
      9          8           0        0.089685   -1.337039   -0.244302
     10          6           0        1.222488   -0.572650    0.223468
     11          1           0        2.090154   -1.018524   -0.260039
     12          1           0        1.310866   -0.739130    1.308732
 ---------------------------------------------------------------------

 SCF Done:  E(RB3LYP) =  -269.422511161     A.U. after    1 cycles

 Isotropic polarizability for W=    0.000000       59.48 Bohr**3.
 End of Minotr F.D. properties file   721 does not exist.

                      1                      2                      3
                      A                      A                      A
 Frequencies --    182.2765               335.1050               500.7459
 Red. masses --      2.1951                 2.7677                 3.1051
 Frc consts  --      0.0430                 0.1831                 0.4587
 IR Inten    --      2.4362                12.2164                15.3493

                      4                      5                      6
                      A                      A                      A
 Frequencies --    572.9028               616.2894               722.1472
 Red. masses --      3.1023                 4.7635                 1.5451
 Frc consts  --      0.5999                 1.0660                 0.4748
 IR Inten    --     14.6662                 0.6050                45.0326

                      7                      8                      9
                      A                      A                      A
 Frequencies --    775.0656               863.5629               930.3095
 Red. masses --      1.3334                 3.6778                 1.4401
 Frc consts  --      0.4719                 1.6159                 0.7343
 IR Inten    --     18.7860                11.3881                 1.0136

                     10                     11                     12
                      A                      A                      A
 Frequencies --    953.0862               971.3245               977.1610
 Red. masses --      2.5329                 2.2861                 1.7937
 Frc consts  --      1.3556                 1.2708                 1.0091
 IR Inten    --      8.8363                19.1566                 6.1104

                     13                     14                     15
                      A                      A                      A
 Frequencies --    994.2464              1083.3186              1098.9380
 Red. masses --      2.2566                 2.2609                 2.0207
 Frc consts  --      1.3143                 1.5633                 1.4378
 IR Inten    --      5.4131                 5.1395                57.9834

                     16                     17                     18
                      A                      A                      A
 Frequencies --   1187.0814              1246.9904              1279.6113
 Red. masses --      1.1164                 1.4407                 1.1289
 Frc consts  --      0.9269                 1.3199                 1.0891
 IR Inten    --      0.4766                46.7104                 7.5109

                     19                     20                     21
                      A                      A                      A
 Frequencies --   1370.1298              1414.6862              1448.4121
 Red. masses --      1.2137                 1.5466                 1.7553
 Frc consts  --      1.3424                 1.8237                 2.1697
 IR Inten    --      0.7354                10.8343                 7.6276

                     22                     23                     24
                      A                      A                      A
 Frequencies --   1500.5916              1618.2440              1692.3489
 Red. masses --      1.1101                 5.7353                 5.4170
 Frc consts  --      1.4728                 8.8489                 9.1408
 IR Inten    --      1.9308                48.8141                30.4458

                     25                     26                     27
                      A                      A                      A
 Frequencies --   2937.3857              3100.4641              3170.4922
 Red. masses --      1.0736                 1.0891                 1.0857
 Frc consts  --      5.4576                 6.1683                 6.4300
 IR Inten    --     85.2144                22.2460                 5.5991

                     28                     29                     30
                      A                      A                      A
 Frequencies --   3190.5940              3192.4466              3218.8439
 Red. masses --      1.0892                 1.0971                 1.0971
 Frc consts  --      6.5326                 6.5877                 6.6975
 IR Inten    --      0.5765                16.5508                 8.2837

 - Thermochemistry -
 -------------------
 Temperature   298.150 Kelvin.  Pressure   1.00000 Atm.
 Atom     1 has atomic number  1 and mass   1.00783

 Molecular mass:    82.04186 amu.
 Principal axes and moments of inertia in atomic units:
                           1         2         3
     Eigenvalues --   322.95729 335.65357 630.33195
           X            0.06711   0.99775   0.00106
           Y            0.99762  -0.06708  -0.01602
           Z            0.01591  -0.00214   0.99987
 This molecule is an asymmetric top.
 Rotational symmetry number  1.
 Rotational temperatures (Kelvin)      0.26819     0.25805     0.13741
 Rotational constants (GHZ):           5.58817     5.37680     2.86316
 Zero-point vibrational energy     258063.2 (Joules/Mol)
                                   61.67859 (Kcal/Mol)
 Warning -- explicit consideration of   5 degrees of freedom as
           vibrations may cause significant error
 Vibrational temperatures:    262.26   482.14   720.46   824.28   886.70
          (Kelvin)           1039.01  1115.15  1242.47  1338.51  1371.28
                             1397.52  1405.92  1430.50  1558.65  1581.13
                             1707.95  1794.14  1841.08  1971.31  2035.42
                             2083.94  2159.02  2328.29  2434.91  4226.24
                             4460.88  4561.63  4590.55  4593.22  4631.20

 Zero-point correction=                           0.098291 (Hartree/Particle)
 Thermal correction to Energy=                    0.103231
 Thermal correction to Enthalpy=                  0.104175
 Thermal correction to Gibbs Free Energy=         0.070205
 Sum of electronic and zero-point Energies=           -269.324220
 Sum of electronic and thermal Energies=              -269.319280
 Sum of electronic and thermal Enthalpies=            -269.318336
 Sum of electronic and thermal Free Energies=         -269.352306

                     E (Thermal)             CV                S
                      KCal/Mol        Cal/Mol-Kelvin    Cal/Mol-Kelvin
 Total                   64.779             18.479             71.497
 Electronic               0.000              0.000              0.000
 Translational            0.889              2.981             39.128
 Rotational               0.889              2.981             25.727
 Vibrational             63.001             12.517              6.641
 Vibration     1          0.630              1.864              2.305
 Vibration     2          0.716              1.605              1.235
 Vibration     3          0.856              1.248              0.656
 Vibration     4          0.929              1.090              0.499
 Vibration     5          0.976              0.997              0.422

                           ! Non-Optimized Parameters !
 Normal termination of Gaussian 16 at Fri Jun 10 21:57:07 2022.
