 Gaussian 16, Revision A.03,
 Gaussian 16:  ES64L-G16RevA.03 25-Dec-2016

 ----------------------------------------------------------------------
 # Opt=(Z-matrix, MaxStep=10) B3LYP/Def2TZVP geom=allcheckpoint guess=r
 ead Field=read NoSymm freq=noraman pop=none
 ----------------------------------------------------------------------

 Structure from the checkpoint file:  "checkpoint.chk"
 ------------------
 int_zmat_initalOpt
 ------------------
 Charge =  0 Multiplicity = 1

 SCF Done:  E(RB3LYP) =  -822.527198535     A.U. after   10 cycles
 SCF Done:  E(RB3LYP) =  -822.527228188     A.U. after    9 cycles
 SCF Done:  E(RB3LYP) =  -822.527237475     A.U. after    9 cycles
 SCF Done:  E(RB3LYP) =  -822.527238919     A.U. after   10 cycles
 SCF Done:  E(RB3LYP) =  -822.527242282     A.U. after    9 cycles
 SCF Done:  E(RB3LYP) =  -822.527244381     A.U. after    8 cycles
 SCF Done:  E(RB3LYP) =  -822.527246892     A.U. after    9 cycles
 SCF Done:  E(RB3LYP) =  -822.527248553     A.U. after    8 cycles
 SCF Done:  E(RB3LYP) =  -822.527247878     A.U. after   10 cycles
 SCF Done:  E(RB3LYP) =  -822.527250331     A.U. after    7 cycles
 SCF Done:  E(RB3LYP) =  -822.527250958     A.U. after    8 cycles
 SCF Done:  E(RB3LYP) =  -822.527251328     A.U. after    7 cycles
 Optimization completed.
    -- Stationary point found.
 Normal termination of Gaussian 16 at Fri Jun 10 13:53:43 2022.

 --------------------------------------------------------------------
 #N Geom=AllCheck Guess=TCheck SCRF=Check GenChk RB3LYP/def2TZVP Freq
 --------------------------------------------------------------------

 Structure from the checkpoint file:  "checkpoint.chk"
 ------------------
 int_zmat_initalOpt
 ------------------
 Charge =  0 Multiplicity = 1

                          Input orientation:
 ---------------------------------------------------------------------
 Center     Atomic      Atomic             Coordinates (Angstroms)
 Number     Number       Type             X           Y           Z
 ---------------------------------------------------------------------
      1          6           0        0.000000    0.000000    0.000000
      2          6           0        0.000000    0.000000    1.389543
      3         16           0        1.622107    0.000000   -0.836975
      4          6           0       -1.191283   -0.053984   -0.715039
      5          6           0        1.701191    1.839423   -1.172422
      6          8           0        2.619307   -0.266938    0.221594
      7          1           0        0.950593    0.003017    1.909587
      8          6           0       -1.211941   -0.038546    2.070577
      9          6           0       -2.400100   -0.090145   -0.028308
     10          1           0       -1.172797   -0.087359   -1.798869
     11          6           0        2.959175    2.147456   -1.910012
     12          1           0        0.799768    2.090662   -1.737440
     13          1           0        1.669604    2.304220   -0.185925
     14          1           0       -1.216038   -0.048183    3.153714
     15          6           0       -2.411055   -0.079826    1.364375
     16          1           0       -3.332233   -0.143975   -0.580846
     17          6           0        4.076667    2.560893   -1.322290
     18          1           0        2.953464    1.957452   -2.978917
     19          1           0       -3.352654   -0.125788    1.900488
     20          1           0        4.983600    2.729337   -1.887681
     21          1           0        4.133087    2.726070   -0.253040
 ---------------------------------------------------------------------

 SCF Done:  E(RB3LYP) =  -822.527251328     A.U. after    1 cycles

 Isotropic polarizability for W=    0.000000      132.86 Bohr**3.
 End of Minotr F.D. properties file   721 does not exist.

                      1                      2                      3
                      A                      A                      A
 Frequencies --     42.2300                55.3158                74.6383
 Red. masses --      4.4393                 3.2237                 3.3859
 Frc consts  --      0.0047                 0.0058                 0.0111
 IR Inten    --      0.9198                 0.1426                 1.9598

                      4                      5                      6
                      A                      A                      A
 Frequencies --     93.4569               191.5371               214.6766
 Red. masses --      3.2166                 5.4679                 3.7303
 Frc consts  --      0.0166                 0.1182                 0.1013
 IR Inten    --      1.2617                 4.8243                 0.7134

                      7                      8                      9
                      A                      A                      A
 Frequencies --    253.7149               307.7853               363.7932
 Red. masses --      3.2829                 5.7242                 5.0614
 Frc consts  --      0.1245                 0.3195                 0.3947
 IR Inten    --      0.4857                 2.6517                 5.9468

                     10                     11                     12
                      A                      A                      A
 Frequencies --    411.2283               420.9639               471.5164
 Red. masses --      2.9799                 1.8815                 4.4880
 Frc consts  --      0.2969                 0.1965                 0.5879
 IR Inten    --      0.1398                 1.6937                 8.1263

                     13                     14                     15
                      A                      A                      A
 Frequencies --    503.3310               533.2862               629.3202
 Red. masses --      5.4003                 2.8506                 6.4053
 Frc consts  --      0.8061                 0.4777                 1.4946
 IR Inten    --     11.3860                38.3056                 0.1866

                     16                     17                     18
                      A                      A                      A
 Frequencies --    688.7657               692.1042               723.0304
 Red. masses --      2.9339                 5.2443                 1.8178
 Frc consts  --      0.8201                 1.4801                 0.5599
 IR Inten    --     23.2755                 4.6171                 9.5753

                     19                     20                     21
                      A                      A                      A
 Frequencies --    752.4134               851.5682               875.5070
 Red. masses --      1.7420                 1.2520                 1.5107
 Frc consts  --      0.5810                 0.5349                 0.6823
 IR Inten    --     37.7232                 0.3846                 5.5948

                     22                     23                     24
                      A                      A                      A
 Frequencies --    911.1150               923.4135               947.6367
 Red. masses --      1.3145                 1.2504                 2.2833
 Frc consts  --      0.6429                 0.6282                 1.2081
 IR Inten    --      2.0037                 0.5337                 0.8474

                     25                     26                     27
                      A                      A                      A
 Frequencies --   1001.7032              1003.0860              1016.3007
 Red. masses --      1.1930                 1.3536                 1.2260
 Frc consts  --      0.7053                 0.8024                 0.7461
 IR Inten    --     51.9932                 0.1373                 1.6062

                     28                     29                     30
                      A                      A                      A
 Frequencies --   1016.7545              1042.4765              1070.0953
 Red. masses --      5.3376                 2.7575                 1.3712
 Frc consts  --      3.2511                 1.7656                 0.9251
 IR Inten    --      0.1756                 8.6240                 7.3516

                     31                     32                     33
                      A                      A                      A
 Frequencies --   1079.3822              1093.3031              1138.0010
 Red. masses --      2.7078                 1.7014                 7.8043
 Frc consts  --      1.8587                 1.1982                 5.9549
 IR Inten    --      8.6955                 7.8726                81.0023

                     34                     35                     36
                      A                      A                      A
 Frequencies --   1173.4510              1193.3209              1205.6678
 Red. masses --      1.1189                 1.1662                 1.3798
 Frc consts  --      0.9077                 0.9784                 1.1817
 IR Inten    --      0.1885                 1.8141                 2.5430

                     37                     38                     39
                      A                      A                      A
 Frequencies --   1219.3182              1325.8662              1334.5777
 Red. masses --      1.3351                 2.8679                 1.2451
 Frc consts  --      1.1695                 2.9703                 1.3066
 IR Inten    --      5.2996                 0.4050                 5.7160

                     40                     41                     42
                      A                      A                      A
 Frequencies --   1346.9709              1436.5863              1467.2193
 Red. masses --      1.8419                 1.1110                 1.1954
 Frc consts  --      1.9690                 1.3509                 1.5162
 IR Inten    --      2.9036                 6.3002                 9.2798

                     43                     44                     45
                      A                      A                      A
 Frequencies --   1473.1534              1509.9373              1619.5646
 Red. masses --      2.1433                 2.0239                 5.6949
 Frc consts  --      2.7405                 2.7187                 8.8010
 IR Inten    --      8.6921                 9.8627                 0.6932

                     46                     47                     48
                      A                      A                      A
 Frequencies --   1622.2985              1695.4461              3030.7074
 Red. masses --      5.2525                 4.2145                 1.0577
 Frc consts  --      8.1447                 7.1378                 5.7241
 IR Inten    --     15.2905                 0.7188                22.5283

                     49                     50                     51
                      A                      A                      A
 Frequencies --   3099.7306              3134.7980              3145.3415
 Red. masses --      1.1054                 1.0837                 1.0792
 Frc consts  --      6.2575                 6.2747                 6.2905
 IR Inten    --      4.7014                 9.8360                12.9815

                     52                     53                     54
                      A                      A                      A
 Frequencies --   3151.1663              3153.4340              3164.1902
 Red. masses --      1.0718                 1.0887                 1.0935
 Frc consts  --      6.2706                 6.3789                 6.4504
 IR Inten    --      0.4096                33.9078                46.4407

                     55                     56                     57
                      A                      A                      A
 Frequencies --   3176.6795              3187.8701              3237.2132
 Red. masses --      1.0910                 1.0944                 1.1167
 Frc consts  --      6.4865                 6.5529                 6.8949
 IR Inten    --     15.4414                22.2927                 1.0432

 - Thermochemistry -
 -------------------
 Temperature   298.150 Kelvin.  Pressure   1.00000 Atm.
 Atom     1 has atomic number  6 and mass  12.00000

 Molecular mass:   166.04524 amu.
 Principal axes and moments of inertia in atomic units:
                           1         2         3
     Eigenvalues --   750.112543458.931153685.09474
           X            0.86450   0.49125  -0.10642
           Y            0.31533  -0.36518   0.87591
           Z           -0.39142   0.79077   0.47060
 This molecule is an asymmetric top.
 Rotational symmetry number  1.
 Warning -- assumption of classical behavior for rotation
           may cause significant error
 Rotational temperatures (Kelvin)      0.11547     0.02504     0.02350
 Rotational constants (GHZ):           2.40596     0.52176     0.48974
 Zero-point vibrational energy     433634.1 (Joules/Mol)
                                  103.64104 (Kcal/Mol)
 Warning -- explicit consideration of  14 degrees of freedom as
           vibrations may cause significant error
 Vibrational temperatures:     60.76    79.59   107.39   134.46   275.58
          (Kelvin)            308.87   365.04   442.83   523.42   591.67
                              605.67   678.41   724.18   767.28   905.45
                              990.98   995.78  1040.28  1082.56  1225.22
                             1259.66  1310.89  1328.59  1363.44  1441.23
                             1443.22  1462.23  1462.88  1499.89  1539.63
                             1552.99  1573.02  1637.33  1688.33  1716.92
                             1734.69  1754.33  1907.63  1920.16  1937.99
                             2066.93  2111.00  2119.54  2172.46  2330.19
                             2334.13  2439.37  4360.51  4459.82  4510.28
                             4525.44  4533.83  4537.09  4552.56  4570.53
                             4586.63  4657.63

 Zero-point correction=                           0.165163 (Hartree/Particle)
 Thermal correction to Energy=                    0.176056
 Thermal correction to Enthalpy=                  0.177000
 Thermal correction to Gibbs Free Energy=         0.127256
 Sum of electronic and zero-point Energies=           -822.362089
 Sum of electronic and thermal Energies=              -822.351195
 Sum of electronic and thermal Enthalpies=            -822.350251
 Sum of electronic and thermal Free Energies=         -822.399996

                     E (Thermal)             CV                S
                      KCal/Mol        Cal/Mol-Kelvin    Cal/Mol-Kelvin
 Total                  110.477             40.381            104.696
 Electronic               0.000              0.000              0.000
 Translational            0.889              2.981             41.230
 Rotational               0.889              2.981             30.637
 Vibrational            108.699             34.419             32.829
 Vibration     1          0.595              1.980              5.152
 Vibration     2          0.596              1.975              4.618
 Vibration     3          0.599              1.966              4.027
 Vibration     4          0.602              1.954              3.586
 Vibration     5          0.634              1.852              2.213
 Vibration     6          0.645              1.819              2.004
 Vibration     7          0.665              1.757              1.705
 Vibration     8          0.698              1.659              1.374
 Vibration     9          0.737              1.547              1.106
 Vibration    10          0.775              1.446              0.922
 Vibration    11          0.783              1.425              0.889
 Vibration    12          0.828              1.313              0.733
 Vibration    13          0.859              1.243              0.650
 Vibration    14          0.888              1.176              0.580

                       ! Non-Optimized Parameters !
 Normal termination of Gaussian 16 at Fri Jun 10 14:10:00 2022.
