 Gaussian 16, Revision A.03,
 Gaussian 16:  ES64L-G16RevA.03 25-Dec-2016

 ----------------------------------------------------------------------
 # Opt=(Z-matrix, MaxStep=10) B3LYP/Def2TZVP Field=read NoSymm freq=nor
 aman pop=none
 ----------------------------------------------------------------------

 ------------------
 int_zmat_initalOpt
 ------------------
 Symbolic Z-matrix:
 Charge =  0 Multiplicity = 1

 SCF Done:  E(RB3LYP) =  -439.155208270     A.U. after   15 cycles
 SCF Done:  E(RB3LYP) =  -439.155237396     A.U. after   10 cycles
 SCF Done:  E(RB3LYP) =  -439.155249707     A.U. after   10 cycles
 SCF Done:  E(RB3LYP) =  -439.155251276     A.U. after    8 cycles
 SCF Done:  E(RB3LYP) =  -439.155252100     A.U. after    9 cycles
 SCF Done:  E(RB3LYP) =  -439.155252485     A.U. after    8 cycles
 SCF Done:  E(RB3LYP) =  -439.155252691     A.U. after    9 cycles
 SCF Done:  E(RB3LYP) =  -439.155252560     A.U. after    9 cycles
 SCF Done:  E(RB3LYP) =  -439.155253396     A.U. after    7 cycles
 SCF Done:  E(RB3LYP) =  -439.155254002     A.U. after   10 cycles
 SCF Done:  E(RB3LYP) =  -439.155255769     A.U. after    7 cycles
 SCF Done:  E(RB3LYP) =  -439.155256019     A.U. after    8 cycles
 SCF Done:  E(RB3LYP) =  -439.155256166     A.U. after    7 cycles
 SCF Done:  E(RB3LYP) =  -439.155256355     A.U. after    7 cycles
 SCF Done:  E(RB3LYP) =  -439.155256577     A.U. after    9 cycles
 SCF Done:  E(RB3LYP) =  -439.155256654     A.U. after    9 cycles
 SCF Done:  E(RB3LYP) =  -439.155256680     A.U. after    6 cycles
 SCF Done:  E(RB3LYP) =  -439.155256658     A.U. after    7 cycles
 SCF Done:  E(RB3LYP) =  -439.155256693     A.U. after    7 cycles
 Optimization completed.
    -- Stationary point found.
 Normal termination of Gaussian 16 at Fri Jun 10 03:37:47 2022.

 --------------------------------------------------------------------
 #N Geom=AllCheck Guess=TCheck SCRF=Check GenChk RB3LYP/def2TZVP Freq
 --------------------------------------------------------------------

 Structure from the checkpoint file:  "checkpoint.chk"
 ------------------
 int_zmat_initalOpt
 ------------------
 Charge =  0 Multiplicity = 1

                          Input orientation:
 ---------------------------------------------------------------------
 Center     Atomic      Atomic             Coordinates (Angstroms)
 Number     Number       Type             X           Y           Z
 ---------------------------------------------------------------------
      1          6           0        0.000000    0.000000    0.000000
      2          6           0        0.000000    0.000000    1.455306
      3          6           0        1.007772    0.000000   -0.852378
      4          1           0       -0.951541    0.131297   -0.505682
      5          8           0        1.831223   -0.012375   -1.668333
      6          6           0        0.971516   -0.305867    2.337027
      7          1           0       -0.945789    0.323230    1.872468
      8          6           0        2.297493   -0.830223    2.108629
      9          1           0        0.723274   -0.138410    3.381047
     10          6           0        2.868264   -1.591482    1.096264
     11          7           0        3.279166   -0.668375    3.066662
     12          1           0        2.363158   -1.953365    0.217766
     13          6           0        4.206528   -1.870838    1.457234
     14          6           0        4.435658   -1.279645    2.678159
     15          1           0        3.173355   -0.114734    3.899160
     16          1           0        4.921825   -2.443846    0.891287
     17          1           0        5.321540   -1.243072    3.288689
 ---------------------------------------------------------------------

 SCF Done:  E(RB3LYP) =  -439.155256693     A.U. after    1 cycles

 Isotropic polarizability for W=    0.000000      108.39 Bohr**3.
 End of Minotr F.D. properties file   721 does not exist.

                      1                      2                      3
                      A                      A                      A
 Frequencies --     41.3449                60.8572               120.8855
 Red. masses --      4.5328                 3.7545                 5.5754
 Frc consts  --      0.0046                 0.0082                 0.0480
 IR Inten    --      2.3002                 0.7863                 0.5923

                      4                      5                      6
                      A                      A                      A
 Frequencies --    164.4082               220.7411               315.3426
 Red. masses --      6.2465                 3.5097                 5.3006
 Frc consts  --      0.0995                 0.1008                 0.3106
 IR Inten    --      3.1832                 3.0074                 4.8427

                      7                      8                      9
                      A                      A                      A
 Frequencies --    472.7677               492.3258               504.5440
 Red. masses --      1.9868                 2.1014                 2.3056
 Frc consts  --      0.2616                 0.3001                 0.3458
 IR Inten    --     21.0768                25.3305                17.9703

                     10                     11                     12
                      A                      A                      A
 Frequencies --    541.6905               587.8036               626.9391
 Red. masses --      5.0787                 2.2393                 2.6656
 Frc consts  --      0.8780                 0.4559                 0.6173
 IR Inten    --      4.0437                54.4085                 1.3402

                     13                     14                     15
                      A                      A                      A
 Frequencies --    652.7611               681.7290               727.2305
 Red. masses --      5.2127                 2.7988                 1.2470
 Frc consts  --      1.3086                 0.7664                 0.3886
 IR Inten    --      4.2326                 3.2242                88.9771

                     16                     17                     18
                      A                      A                      A
 Frequencies --    750.5481               807.0058               844.3884
 Red. masses --      1.5818                 1.4492                 3.5573
 Frc consts  --      0.5250                 0.5561                 1.4944
 IR Inten    --     18.0362                15.8225                21.1162

                     19                     20                     21
                      A                      A                      A
 Frequencies --    874.8455               898.2417               923.4674
 Red. masses --      1.3532                 5.4690                 4.6254
 Frc consts  --      0.6102                 2.5998                 2.3240
 IR Inten    --      1.8258                 2.1114                17.5386

                     22                     23                     24
                      A                      A                      A
 Frequencies --    948.1750               983.3399              1063.2911
 Red. masses --      1.2434                 2.5820                 1.3381
 Frc consts  --      0.6586                 1.4710                 0.8913
 IR Inten    --      1.9544                 2.1547                17.3284

                     25                     26                     27
                      A                      A                      A
 Frequencies --   1122.4657              1136.7480              1155.7632
 Red. masses --      1.8937                 1.4210                 1.5536
 Frc consts  --      1.4058                 1.0819                 1.2228
 IR Inten    --     26.4475                37.7776                 3.4119

                     28                     29                     30
                      A                      A                      A
 Frequencies --   1236.0547              1255.2158              1309.9016
 Red. masses --      2.1276                 1.5083                 1.3942
 Frc consts  --      1.9152                 1.4001                 1.4095
 IR Inten    --      6.7385                 0.4620                 1.9420

                     31                     32                     33
                      A                      A                      A
 Frequencies --   1422.4870              1437.3073              1442.1598
 Red. masses --      2.1979                 2.7846                 2.9551
 Frc consts  --      2.6203                 3.3894                 3.6212
 IR Inten    --      0.5124                11.3711                 4.7954

                     34                     35                     36
                      A                      A                      A
 Frequencies --   1469.6801              1486.5792              1594.5763
 Red. masses --      2.1497                 3.5570                 3.3928
 Frc consts  --      2.7357                 4.6314                 5.0827
 IR Inten    --      6.3150                59.2127                 0.7488

                     37                     38                     39
                      A                      A                      A
 Frequencies --   1667.3658              2182.2697              3132.6238
 Red. masses --      6.6063                12.6725                 1.0850
 Frc consts  --     10.8211                35.5572                 6.2731
 IR Inten    --     22.3063               689.4360                 5.7025

                     40                     41                     42
                      A                      A                      A
 Frequencies --   3149.3934              3172.6850              3243.5091
 Red. masses --      1.0825                 1.0902                 1.0898
 Frc consts  --      6.3261                 6.4657                 6.7551
 IR Inten    --     11.0425                 8.3576                 5.0324

                     43                     44                     45
                      A                      A                      A
 Frequencies --   3260.8557              3269.2843              3646.9052
 Red. masses --      1.0949                 1.1039                 1.0803
 Frc consts  --      6.8593                 6.9516                 8.4656
 IR Inten    --      0.9171                 0.4002                69.4014

 - Thermochemistry -
 -------------------
 Temperature   298.150 Kelvin.  Pressure   1.00000 Atm.
 Atom     1 has atomic number  6 and mass  12.00000

 Molecular mass:   133.05276 amu.
 Principal axes and moments of inertia in atomic units:
                           1         2         3
     Eigenvalues --   757.029671836.723832470.83154
           X            0.70409  -0.61685   0.35179
           Y           -0.28680   0.20619   0.93554
           Z            0.64962   0.75959   0.03173
 This molecule is an asymmetric top.
 Rotational symmetry number  1.
 Warning -- assumption of classical behavior for rotation
           may cause significant error
 Rotational temperatures (Kelvin)      0.11441     0.04716     0.03505
 Rotational constants (GHZ):           2.38398     0.98259     0.73042
 Zero-point vibrational energy     341524.9 (Joules/Mol)
                                   81.62641 (Kcal/Mol)
 Warning -- explicit consideration of  11 degrees of freedom as
           vibrations may cause significant error
 Vibrational temperatures:     59.49    87.56   173.93   236.55   317.60
          (Kelvin)            453.71   680.21   708.35   725.93   779.37
                              845.72   902.03   939.18   980.86  1046.32
                             1079.87  1161.10  1214.89  1258.71  1292.37
                             1328.66  1364.21  1414.81  1529.84  1614.98
                             1635.53  1662.89  1778.41  1805.98  1884.66
                             2046.64  2067.96  2074.95  2114.54  2138.86
                             2294.24  2398.97  3139.80  4507.15  4531.27
                             4564.79  4666.69  4691.64  4703.77  5247.08

 Zero-point correction=                           0.130080 (Hartree/Particle)
 Thermal correction to Energy=                    0.139033
 Thermal correction to Enthalpy=                  0.139977
 Thermal correction to Gibbs Free Energy=         0.094923
 Sum of electronic and zero-point Energies=           -439.025177
 Sum of electronic and thermal Energies=              -439.016223
 Sum of electronic and thermal Enthalpies=            -439.015279
 Sum of electronic and thermal Free Energies=         -439.060334

                     E (Thermal)             CV                S
                      KCal/Mol        Cal/Mol-Kelvin    Cal/Mol-Kelvin
 Total                   87.245             33.158             94.826
 Electronic               0.000              0.000              0.000
 Translational            0.889              2.981             40.569
 Rotational               0.889              2.981             29.620
 Vibrational             85.467             27.197             24.637
 Vibration     1          0.594              1.981              5.194
 Vibration     2          0.597              1.973              4.429
 Vibration     3          0.609              1.932              3.086
 Vibration     4          0.623              1.886              2.498
 Vibration     5          0.647              1.809              1.953
 Vibration     6          0.703              1.644              1.334
 Vibration     7          0.830              1.310              0.730
 Vibration     8          0.848              1.267              0.678
 Vibration     9          0.860              1.240              0.647
 Vibration    10          0.897              1.158              0.562
 Vibration    11          0.945              1.058              0.471

 Optimization completed.
    -- Stationary point found.
 Normal termination of Gaussian 16 at Fri Jun 10 03:48:24 2022.
