 Gaussian 16, Revision A.03,
 Gaussian 16:  ES64L-G16RevA.03 25-Dec-2016

 ------------------------------------------
 # Opt B3LYP/Def2TZVP freq=noraman pop=none
 ------------------------------------------

 -------------
 int_initalOpt
 -------------
 Symbolic Z-matrix:
 Charge =  0 Multiplicity = 1

 SCF Done:  E(RB3LYP) =  -439.153853587     A.U. after   15 cycles
 Optimization completed.
    -- Stationary point found.
 Normal termination of Gaussian 16 at Fri Jun 10 10:41:06 2022.

 --------------------------------------------------------------------
 #N Geom=AllCheck Guess=TCheck SCRF=Check GenChk RB3LYP/def2TZVP Freq
 --------------------------------------------------------------------

 Structure from the checkpoint file:  "checkpoint.chk"
 -------------
 int_initalOpt
 -------------
 Charge =  0 Multiplicity = 1

                         Standard orientation:
 ---------------------------------------------------------------------
 Center     Atomic      Atomic             Coordinates (Angstroms)
 Number     Number       Type             X           Y           Z
 ---------------------------------------------------------------------
      1          6           0       -2.465460    0.451627    0.163305
      2          6           0       -1.545004    1.576809    0.134051
      3          6           0       -2.267265   -0.805830   -0.185789
      4          8           0       -2.162411   -1.924035   -0.469729
      5          6           0       -0.200657    1.624424    0.059272
      6          6           0        0.773640    0.557780    0.081357
      7          6           0        0.778410   -0.735633    0.586719
      8          1           0       -0.036201   -1.217322    1.098240
      9          1           0       -3.503169    0.647740    0.412775
     10          1           0       -2.056328    2.531124    0.167919
     11          1           0        0.224413    2.620975   -0.018846
     12          6           0        2.064760   -1.285504    0.377373
     13          1           0        2.397682   -2.269877    0.661287
     14          6           0        2.826185   -0.327281   -0.249804
     15          1           0        3.847501   -0.348047   -0.589466
     16          7           0        2.044376    0.780907   -0.412903
     17          1           0        2.327098    1.622987   -0.882663
 ---------------------------------------------------------------------

 SCF Done:  E(RB3LYP) =  -439.153853587     A.U. after    1 cycles

 Isotropic polarizability for W=    0.000000      108.28 Bohr**3.
 End of Minotr F.D. properties file   721 does not exist.

                      1                      2                      3
                      A                      A                      A
 Frequencies --     39.6683                62.9314               120.4083
 Red. masses --      4.5335                 3.7519                 5.7964
 Frc consts  --      0.0042                 0.0088                 0.0495
 IR Inten    --      2.0198                 0.9079                 0.5130

                      4                      5                      6
                      A                      A                      A
 Frequencies --    163.1436               221.3295               316.0038
 Red. masses --      6.1966                 3.5310                 5.2886
 Frc consts  --      0.0972                 0.1019                 0.3112
 IR Inten    --      3.1048                 2.8104                 4.9570

                      7                      8                      9
                      A                      A                      A
 Frequencies --    469.1424               482.4795               504.0204
 Red. masses --      1.6805                 1.6512                 4.7014
 Frc consts  --      0.2179                 0.2265                 0.7037
 IR Inten    --     54.9289                 2.8339                 4.3533

                     10                     11                     12
                      A                      A                      A
 Frequencies --    542.4363               591.7796               626.1847
 Red. masses --      5.1138                 2.1244                 2.7297
 Frc consts  --      0.8865                 0.4383                 0.6306
 IR Inten    --      3.7967                58.0929                 1.1405

                     13                     14                     15
                      A                      A                      A
 Frequencies --    653.9055               682.5938               714.7852
 Red. masses --      5.3485                 2.6899                 1.2800
 Frc consts  --      1.3475                 0.7384                 0.3853
 IR Inten    --      3.1363                 1.2541                84.0516

                     16                     17                     18
                      A                      A                      A
 Frequencies --    752.1028               803.8648               843.1636
 Red. masses --      1.5856                 1.4110                 3.6651
 Frc consts  --      0.5284                 0.5372                 1.5352
 IR Inten    --     16.8932                24.0064                18.9227

                     19                     20                     21
                      A                      A                      A
 Frequencies --    872.9440               898.4040               926.1252
 Red. masses --      1.3644                 5.4922                 4.5101
 Frc consts  --      0.6126                 2.6118                 2.2792
 IR Inten    --      1.9762                 2.7210                16.8324

                     22                     23                     24
                      A                      A                      A
 Frequencies --    950.0967               982.6108              1064.2777
 Red. masses --      1.2509                 2.5582                 1.3442
 Frc consts  --      0.6653                 1.4553                 0.8970
 IR Inten    --      1.8225                 2.0591                16.7214

                     25                     26                     27
                      A                      A                      A
 Frequencies --   1121.1606              1134.1777              1155.7336
 Red. masses --      1.9014                 1.4148                 1.5667
 Frc consts  --      1.4082                 1.0723                 1.2330
 IR Inten    --     30.8126                33.4695                 2.6740

                     28                     29                     30
                      A                      A                      A
 Frequencies --   1232.9703              1256.5332              1310.9644
 Red. masses --      2.3823                 1.4213                 1.3735
 Frc consts  --      2.1338                 1.3222                 1.3908
 IR Inten    --      7.2420                 0.2127                 2.5281

                     31                     32                     33
                      A                      A                      A
 Frequencies --   1423.3034              1438.0708              1440.8077
 Red. masses --      2.2052                 2.8415                 2.8303
 Frc consts  --      2.6321                 3.4622                 3.4617
 IR Inten    --      0.2706                13.9594                 5.2662

                     34                     35                     36
                      A                      A                      A
 Frequencies --   1469.6528              1487.9354              1594.6782
 Red. masses --      2.1390                 3.5754                 3.4298
 Frc consts  --      2.7221                 4.6638                 5.1389
 IR Inten    --      6.1777                50.0090                 0.6778

                     37                     38                     39
                      A                      A                      A
 Frequencies --   1668.0963              2185.2580              3129.8524
 Red. masses --      6.6340                12.6744                 1.0849
 Frc consts  --     10.8760                35.6603                 6.2617
 IR Inten    --     23.3925               695.0032                 7.6566

                     40                     41                     42
                      A                      A                      A
 Frequencies --   3154.6111              3172.3130              3242.7684
 Red. masses --      1.0829                 1.0901                 1.0897
 Frc consts  --      6.3495                 6.4632                 6.7515
 IR Inten    --     14.5754                 6.1970                 4.1156

                     43                     44                     45
                      A                      A                      A
 Frequencies --   3262.4202              3269.5336              3651.7340
 Red. masses --      1.0962                 1.1024                 1.0801
 Frc consts  --      6.8741                 6.9430                 8.4863
 IR Inten    --      1.4563                 0.1978                60.1023

 - Thermochemistry -
 -------------------
 Temperature   298.150 Kelvin.  Pressure   1.00000 Atm.
 Atom     1 has atomic number  6 and mass  12.00000

 Molecular mass:   133.05276 amu.
 Principal axes and moments of inertia in atomic units:
                           1         2         3
     Eigenvalues --   750.715441850.239292483.38818
           X            0.99946  -0.03168  -0.00893
           Y            0.03152   0.99933  -0.01848
           Z            0.00951   0.01819   0.99979
 This molecule is an asymmetric top.
 Rotational symmetry number  1.
 Warning -- assumption of classical behavior for rotation
           may cause significant error
 Rotational temperatures (Kelvin)      0.11538     0.04681     0.03488
 Rotational constants (GHZ):           2.40403     0.97541     0.72673
 Zero-point vibrational energy     341456.0 (Joules/Mol)
                                   81.60993 (Kcal/Mol)
 Warning -- explicit consideration of  11 degrees of freedom as
           vibrations may cause significant error
 Vibrational temperatures:     57.07    90.54   173.24   234.73   318.44
          (Kelvin)            454.66   674.99   694.18   725.17   780.44
                              851.44   900.94   940.82   982.10  1028.42
                             1082.11  1156.58  1213.12  1255.97  1292.60
                             1332.49  1366.98  1413.76  1531.26  1613.10
                             1631.83  1662.84  1773.97  1807.87  1886.19
                             2047.82  2069.06  2073.00  2114.50  2140.81
                             2294.39  2400.02  3144.10  4503.16  4538.78
                             4564.25  4665.62  4693.90  4704.13  5254.03

 Zero-point correction=                           0.130054 (Hartree/Particle)
 Thermal correction to Energy=                    0.139021
 Thermal correction to Enthalpy=                  0.139965
 Thermal correction to Gibbs Free Energy=         0.094874
 Sum of electronic and zero-point Energies=           -439.023800
 Sum of electronic and thermal Energies=              -439.014833
 Sum of electronic and thermal Enthalpies=            -439.013889
 Sum of electronic and thermal Free Energies=         -439.058980

                     E (Thermal)             CV                S
                      KCal/Mol        Cal/Mol-Kelvin    Cal/Mol-Kelvin
 Total                   87.237             33.203             94.902
 Electronic               0.000              0.000              0.000
 Translational            0.889              2.981             40.569
 Rotational               0.889              2.981             29.624
 Vibrational             85.459             27.241             24.709
 Vibration     1          0.594              1.981              5.276
 Vibration     2          0.597              1.972              4.363
 Vibration     3          0.609              1.932              3.094
 Vibration     4          0.623              1.888              2.513
 Vibration     5          0.648              1.809              1.948
 Vibration     6          0.703              1.643              1.331
 Vibration     7          0.826              1.319              0.740
 Vibration     8          0.839              1.289              0.703
 Vibration     9          0.859              1.241              0.648
 Vibration    10          0.898              1.156              0.560
 Vibration    11          0.949              1.049              0.464

                           ! Non-Optimized Parameters !
 Normal termination of Gaussian 16 at Fri Jun 10 10:51:14 2022.
